     132
 i =        1, E =      -531.3114060012
 Si         0.0601062827        2.2882635650       12.1748902601
 Si         2.0262652164        1.2615430559       11.6452567544
 Si        -1.7885701853        5.6341141902       12.1743486382
 Si         0.1696034192        4.5075432310       11.6586104936
 Si        -3.8405700696        8.9209447491       12.1914270308
 Si        -1.8612658338        7.8784162531       11.6908600777
 Si        -5.7594034333       12.2920069555       12.1965050279
 Si        -3.8568498737       11.1458182113       11.6741179223
 Si        -7.6508077735       15.5900236424       12.2187850960
 Si        -5.6769100335       14.5280844785       11.6899993111
 Si        -9.6113884480       18.9553754349       12.2123893665
 Si        -7.6890999447       17.8232665265       11.7146842845
 Si       -11.5481042828       22.3109214784       12.1439346271
 Si        -9.5872625178       21.1908753174       11.6990364220
 Si       -13.4524128414       25.7364783690       12.1118994194
 Si       -11.5548867050       24.5492496635       11.6370033558
 Si         3.9793902012        2.4057072312       12.1957081931
 Si         5.8061175499        1.1364407792       11.7069525580
 Si         2.1291654121        5.6359129833       12.1977224717
 Si         4.1937688062        4.6791153801       11.7122034025
 Si         0.0772617963        9.0405431359       12.1568997083
 Si         1.9459264850        7.8398025887       11.6441447545
 Si        -1.9099018968       12.2706623261       12.0887615631
 Si         0.0790754732       11.2838761735       11.6067006180
 Si        -3.7052662031       15.6499430805       12.1477699495
 Si        -1.7789019925       14.4885111662       11.6401341647
 Si        -5.7488020962       18.9460988143       12.1435210163
 Si        -3.7789993667       17.8907707864       11.6965389172
 Si        -7.6226595703       22.2995032488       12.1353281719
 Si        -5.6689258344       21.1787849228       11.6887485651
 Si        -9.6196074269       25.6418409801       12.1594793499
 Si        -7.6863108611       24.5327455188       11.6348398199
 Si         7.6462298360        2.3826271895       12.1740813183
 Si         9.5968792725        1.1893535533       11.6229499616
  N         5.7803206948        5.6046022680       11.8244894157
 Si         7.3780202133        4.6696926575       11.7009936619
 Si         3.9031829222        8.8575191887       12.1585411549
 Si         5.7698538458        7.4723316374       11.6468472154
 Si         1.9337043776       12.6004552531       11.9885294225
 Si         3.7988880645       11.1698172864       11.6225582342
 Si         0.3056654355       15.4312375036       11.9357706939
  C         1.9097135731       14.4687039188       11.7454752042
 Si        -1.8822919215       19.1285005714       11.9639348445
 Si        -0.0049125761       17.7533206676       11.7109619533
 Si        -3.6029650573       22.1405894347       11.9830468518
  B        -1.9017004877       21.1192882290       11.8733287002
 Si        -5.7696808278       25.6580936548       12.1231458722
 Si        -3.8360795218       24.4439995915       11.6813727149
 Si        11.5376690251        2.2388211445       12.1745462608
 Si        13.4869366195        1.1345051565       11.6649191540
 Si         9.4519849806        5.5942969772       12.2093380796
 Si        11.4129962846        4.4557800386       11.6490027049
 Si         7.6328774501        8.7500740309       12.2118583707
 Si         9.6488284329        7.8008060593       11.7088294670
 Si         5.7479460997       12.1954201432       12.1086026588
 Si         7.6269476221       10.9947501485       11.6163159940
 Si         3.5173845342       15.3915037376       11.9151331478
 Si         5.5913653387       14.4027258782       11.5916050814
 Si         1.8888976084       18.9364698253       11.9999416064
 Si         3.7189412573       17.6796721994       11.5799128679
 Si        -0.2252453942       22.1439554350       11.9657215458
 Si         1.8255526453       21.1857939506       11.6195868770
 Si        -1.9417946633       25.6359140922       12.1098396803
 Si        -0.0611263271       24.4265718940       11.6668174483
 Si        15.4272918804        2.2469324005       12.1663420708
 Si        17.3294743217        1.0806534899       11.6467559600
 Si        13.3871677631        5.5479150871       12.1597916570
 Si        15.3690841046        4.4834138572       11.6234799176
 Si        11.5859725529        8.9139005698       12.2203295902
 Si        13.5087187537        7.7748034624       11.6660645630
 Si         9.5564062848       12.1873759189       12.0879343272
 Si        11.5466218658       11.1240833828       11.6572207840
 Si         7.5524546247       15.5628567671       11.8927899315
 Si         9.5276782010       14.4089635480       11.4909781909
 Si         5.6961500478       18.8100630245       11.8785577112
 Si         7.5859098891       17.7352188008       11.2552814257
 Si         3.8118657300       22.2556644137       12.0167199502
 Si         5.7071783998       21.0958779907       11.4600535058
 Si         1.8790623563       25.5686994196       12.0989995420
 Si         3.8370457652       24.5083223883       11.5807677726
 Si        19.2499639105        2.2359123868       12.1510123771
 Si        21.2051526263        1.1486347263       11.6369249708
 Si        17.3227119529        5.6043255954       12.1653789394
 Si        19.2671847709        4.4779944927       11.6276655715
 Si        15.4734635265        8.8596641306       12.1990618622
  P        17.3638322213        7.7889306182       11.5751195684
 Si        13.5009585486       12.1946251719       12.1983499270
 Si        15.4496625570       11.0979546357       11.6690131693
 Si        11.5181524351       15.5284462119       11.9749451184
 Si        13.4977365685       14.4154662439       11.6511632135
 Al         9.6142068275       18.9157714727       11.6564732641
 Si        11.6550307623       17.7307918999       11.3882931922
 Si         7.6577718133       22.2729306294       11.9241591036
 Si         9.6260198876       21.2771744006       11.3596367748
 Si         5.7504246887       25.6561984360       12.1053420936
 Si         7.6768985235       24.5427982972       11.5847578815
 Si        23.1647229283        2.2328574627       12.1360766103
 Si        25.1150526128        1.1388439837       11.6331050415
 Si        21.2362601063        5.5594685279       12.1467615444
 Si        23.1972607585        4.4687903633       11.6607860874
 Si        19.2577898283        8.8767582302       12.2023249087
 Si        21.2156816525        7.7960015652       11.6508302153
 Si        17.3664956051       12.2501446173       12.1770403957
 Si        19.2882317454       11.1171959240       11.6675855457
 Si        15.4186326633       15.5867724190       12.1422455061
 Si        17.3815425631       14.4883648982       11.7026128213
 Si        13.5114072516       18.9220814451       11.9812344213
 Si        15.4835470707       17.8289181937       11.6567698951
 Si        11.5659931194       22.3227095611       11.9372668825
 Si        13.5238732332       21.1860896916       11.5050721456
 Si         9.6459416878       25.6375493918       12.0752038645
 Si        11.6175683656       24.5766647698       11.5854200685
 Si        27.0612019094        2.2709430520       12.1303345826
 Si        29.0099481603        1.1739440313       11.6399305595
 Si        25.1504916330        5.5810611976       12.1686396421
 Si        27.1286237918        4.5177813143       11.6616989509
 Si        23.1563203252        8.9218612829       12.2009542087
 Si        25.1026936710        7.8118778992       11.6858978871
 Si        21.2303176935       12.2240654525       12.2279442230
 Si        23.1845515301       11.1596313751       11.7091407292
 Si        19.3314840000       15.5985136572       12.2121505978
 Si        21.2757162286       14.4725763792       11.7457200101
 Si        17.4071667687       18.9583680411       12.1601240403
 Si        19.3470633411       17.8352672273       11.7127156337
 Si        15.4507069063       22.3183907530       12.0553982688
 Si        17.4071894610       21.1902277281       11.6273173976
 Si        13.5542606444       25.6847698949       12.1018496259
 Si        15.5002934187       24.5848208052       11.5974037249
  H         0.7315458483       14.3751100429       16.0379095578
  C         1.7457062059       14.5299357863       15.6189997536
  H         2.6168977495       14.7311980714       16.2714421221
  O         1.9154641774       14.4616775905       14.4169446714
     132
 i =        2, E =      -531.3138635086
 Si         0.0601084032        2.2882652147       12.1747080883
 Si         2.0262860932        1.2614308244       11.6453687921
 Si        -1.7887098297        5.6340459580       12.1740668468
 Si         0.1695186604        4.5075855434       11.6585575343
 Si        -3.8407291632        8.9209273211       12.1911422019
 Si        -1.8612478001        7.8784913929       11.6914169292
 Si        -5.7595320775       12.2917598418       12.1963074232
 Si        -3.8563593579       11.1461307565       11.6751022469
 Si        -7.6508826820       15.5900074112       12.2184201578
 Si        -5.6766440838       14.5280346588       11.6911707299
 Si        -9.6113961901       18.9554138564       12.2122779247
 Si        -7.6891603851       17.8233369564       11.7147116065
 Si       -11.5480682906       22.3109741623       12.1437741359
 Si        -9.5872617137       21.1909064722       11.6990485032
 Si       -13.4523441634       25.7363960438       12.1117995717
 Si       -11.5547582497       24.5492986328       11.6366841341
 Si         3.9793283570        2.4055903722       12.1956327582
 Si         5.8061211713        1.1364042509       11.7069676715
 Si         2.1290260201        5.6360690378       12.1973481467
 Si         4.1936892492        4.6790594675       11.7123564640
 Si         0.0768556160        9.0414579037       12.1569483713
 Si         1.9459990311        7.8404895094       11.6451876371
 Si        -1.9094257994       12.2711747543       12.0887811264
 Si         0.0794915438       11.2839341015       11.6065226936
 Si        -3.7048074211       15.6495985459       12.1479562446
 Si        -1.7784159701       14.4891632332       11.6390226048
 Si        -5.7487920870       18.9460575737       12.1430149872
 Si        -3.7785283444       17.8908871846       11.6971121876
 Si        -7.6227080633       22.2994395565       12.1353023566
 Si        -5.6690138602       21.1788612880       11.6888271102
 Si        -9.6194807627       25.6417685724       12.1593486671
 Si        -7.6862175591       24.5326702302       11.6347775684
 Si         7.6463074587        2.3825611085       12.1739736041
 Si         9.5968413691        1.1893214961       11.6230870469
  N         5.7802221267        5.6042689213       11.8259255179
 Si         7.3780331057        4.6695941218       11.7009428956
 Si         3.9035671340        8.8585547959       12.1580202406
 Si         5.7695497728        7.4720741189       11.6476705125
 Si         1.9337965809       12.6085656139       11.9583376611
 Si         3.7982932629       11.1702014036       11.6216846728
 Si         0.3119359159       15.4272550420       11.9086433257
  C         1.9100762558       14.4691137840       11.6555778119
 Si        -1.8808048245       19.1276958480       11.9646476111
 Si        -0.0046249472       17.7517772719       11.7082520314
 Si        -3.6029682895       22.1406958621       11.9828718500
  B        -1.9018495978       21.1189531681       11.8742474400
 Si        -5.7697658841       25.6581073768       12.1231437296
 Si        -3.8361202639       24.4441214577       11.6814773194
 Si        11.5376424461        2.2387649126       12.1744284534
 Si        13.4869581557        1.1345459064       11.6649392072
 Si         9.4520206235        5.5943213958       12.2091987926
 Si        11.4129755567        4.4557522382       11.6491521787
 Si         7.6329895135        8.7501373304       12.2116064665
 Si         9.6490637379        7.8008855817       11.7088214506
 Si         5.7473647878       12.1961974811       12.1084431323
 Si         7.6264970142       10.9949385660       11.6169974486
 Si         3.5114809593       15.3878213107       11.8908799492
 Si         5.5914391498       14.4033362919       11.5893347866
 Si         1.8891357204       18.9350609542       12.0002171088
 Si         3.7192550068       17.6789041083       11.5777374306
 Si        -0.2253925480       22.1440522939       11.9654756517
 Si         1.8253237863       21.1849424739       11.6204769838
 Si        -1.9417508065       25.6359738403       12.1095187770
 Si        -0.0610477732       24.4266378130       11.6669136227
 Si        15.4271877872        2.2469316650       12.1664219564
 Si        17.3294193422        1.0806638281       11.6469181981
 Si        13.3872090945        5.5478324523       12.1597494124
 Si        15.3691275662        4.4834015718       11.6234333644
 Si        11.5861374575        8.9138779748       12.2203064967
 Si        13.5087962128        7.7747127349       11.6660929198
 Si         9.5564321128       12.1872562498       12.0876411749
 Si        11.5467205915       11.1240558731       11.6572912064
 Si         7.5520730894       15.5624740239       11.8933838858
 Si         9.5274627217       14.4091755351       11.4918886458
 Si         5.6952501835       18.8096361661       11.8794408007
 Si         7.5854466336       17.7352403502       11.2554187265
 Si         3.8116957974       22.2556349726       12.0163038523
 Si         5.7072903948       21.0954558383       11.4608752707
 Si         1.8790965063       25.5688747521       12.0989320261
 Si         3.8370393038       24.5083846672       11.5810345779
 Si        19.2499526415        2.2359727253       12.1510066263
 Si        21.2052011802        1.1487534536       11.6371048487
 Si        17.3226959419        5.6042888074       12.1654501727
 Si        19.2672216116        4.4779774005       11.6274729388
 Si        15.4734589072        8.8596446478       12.1990093187
  P        17.3637768701        7.7888720008       11.5750298761
 Si        13.5009964283       12.1946249199       12.1982779975
 Si        15.4496624686       11.0980235650       11.6690813712
 Si        11.5180919148       15.5284722378       11.9746249173
 Si        13.4976435077       14.4154748176       11.6512985222
 Al         9.6141978922       18.9156936143       11.6562211861
 Si        11.6550959871       17.7309070930       11.3883621829
 Si         7.6577852866       22.2730094420       11.9238606708
 Si         9.6261127877       21.2771909281       11.3597265862
 Si         5.7504213218       25.6562905993       12.1051181308
 Si         7.6769108250       24.5428157427       11.5849850344
 Si        23.1648196546        2.2329288225       12.1361023247
 Si        25.1150813298        1.1388853960       11.6330162557
 Si        21.2362684953        5.5594572094       12.1467075287
 Si        23.1973065947        4.4688335001       11.6608042572
 Si        19.2577365755        8.8766783903       12.2023228197
 Si        21.2156519034        7.7959988889       11.6507185418
 Si        17.3664960078       12.2501112102       12.1770417310
 Si        19.2882351555       11.1171479034       11.6677433727
 Si        15.4186041052       15.5867088033       12.1420810881
 Si        17.3815827859       14.4883727863       11.7026045162
 Si        13.5114044897       18.9222008082       11.9811142347
 Si        15.4834156392       17.8289303728       11.6567426850
 Si        11.5660403165       22.3226720046       11.9372073962
 Si        13.5239542705       21.1861865271       11.5051574707
 Si         9.6459549377       25.6375853623       12.0750223729
 Si        11.6175397426       24.5766171638       11.5854936256
 Si        27.0612717046        2.2708924992       12.1301086373
 Si        29.0100125049        1.1739597023       11.6398013663
 Si        25.1505220085        5.5810474645       12.1685410908
 Si        27.1286036534        4.5177535979       11.6618204000
 Si        23.1561786099        8.9217132543       12.2008220232
 Si        25.1025601968        7.8118274239       11.6859172137
 Si        21.2303106214       12.2240196507       12.2278979241
 Si        23.1844781085       11.1595310797       11.7092561656
 Si        19.3315114414       15.5985734254       12.2121914765
 Si        21.2756885468       14.4725531606       11.7458277405
 Si        17.4070763994       18.9583039782       12.1599609025
 Si        19.3470833603       17.8353099285       11.7128369902
 Si        15.4507132581       22.3184380159       12.0553021255
 Si        17.4072144855       21.1902392347       11.6272851478
 Si        13.5542231572       25.6848118097       12.1017845861
 Si        15.5002602645       24.5849173038       11.5972807831
  H         0.7411135825       14.3854732727       16.0835210717
  C         1.7497947336       14.5244135301       15.6557358660
  H         2.5972175745       14.7374041558       16.3278872708
  O         1.9188297306       14.4504499758       14.4514555840
     132
 i =        3, E =      -531.3154479783
 Si         0.0601523888        2.2883044161       12.1745001466
 Si         2.0263044237        1.2612948490       11.6454761131
 Si        -1.7887279403        5.6340972720       12.1739219790
 Si         0.1695139019        4.5076829253       11.6582734211
 Si        -3.8409674749        8.9209934651       12.1909477079
 Si        -1.8612042786        7.8790407109       11.6923131412
 Si        -5.7595431613       12.2913511675       12.1962842952
 Si        -3.8555738959       11.1465637729       11.6771005093
 Si        -7.6508367545       15.5900637487       12.2181262590
 Si        -5.6758453505       14.5278076507       11.6930935735
 Si        -9.6114324476       18.9554496094       12.2122431746
 Si        -7.6891356721       17.8234556687       11.7145847653
 Si       -11.5480911914       22.3110713742       12.1435439500
 Si        -9.5872724576       21.1909567388       11.6990184390
 Si       -13.4522392351       25.7362767907       12.1116256940
 Si       -11.5546227327       24.5493217936       11.6362394733
 Si         3.9792330411        2.4054177552       12.1956034314
 Si         5.8061597899        1.1363845430       11.7070067283
 Si         2.1288694111        5.6364939946       12.1966209038
 Si         4.1935345334        4.6789890565       11.7129070876
 Si         0.0771835079        9.0425296197       12.1576861197
 Si         1.9460336061        7.8414695557       11.6467181300
 Si        -1.9087091128       12.2721424981       12.0873256093
 Si         0.0779787538       11.2830613854       11.6028863505
 Si        -3.7036494775       15.6496768568       12.1486966297
 Si        -1.7792254970       14.4888104440       11.6339279122
 Si        -5.7484344017       18.9459296230       12.1420937868
 Si        -3.7775881838       17.8908258574       11.6981949975
 Si        -7.6227964293       22.2994281211       12.1353113004
 Si        -5.6690116908       21.1788908639       11.6888943629
 Si        -9.6193510582       25.6416980768       12.1591599178
 Si        -7.6861830908       24.5325798956       11.6346072408
 Si         7.6464285233        2.3824439170       12.1740206709
 Si         9.5967951793        1.1892644088       11.6232555380
  N         5.7799754810        5.6040833178       11.8273978181
 Si         7.3779618892        4.6694976767       11.7009866162
 Si         3.9032613216        8.8600863363       12.1574906849
 Si         5.7694123402        7.4720206373       11.6486714291
 Si         1.9341949015       12.6155610438       11.9095840410
 Si         3.7996054668       11.1700962022       11.6165355557
 Si         0.3174427765       15.4244558205       11.8623552838
  C         1.9103686250       14.4703913652       11.6015100578
 Si        -1.8794193367       19.1262581088       11.9652435900
 Si        -0.0038213423       17.7513807206       11.7012196864
 Si        -3.6027540867       22.1403959710       11.9829074325
  B        -1.9015328058       21.1181572221       11.8756886262
 Si        -5.7698475014       25.6580868132       12.1231621141
 Si        -3.8360391082       24.4440859230       11.6815264962
 Si        11.5375991003        2.2387182114       12.1743178541
 Si        13.4869701617        1.1346334569       11.6648618802
 Si         9.4520180224        5.5943207537       12.2091423692
 Si        11.4129752192        4.4557529896       11.6492940696
 Si         7.6331194186        8.7502771641       12.2115452720
 Si         9.6491923972        7.8009506602       11.7086423508
 Si         5.7463060489       12.1972228923       12.1065636720
 Si         7.6256244426       10.9952514840       11.6185066703
 Si         3.5061586765       15.3848132999       11.8467554872
 Si         5.5924929468       14.4032819738       11.5830176807
 Si         1.8892744809       18.9332889112       11.9987316247
 Si         3.7194853642       17.6794872813       11.5720670422
 Si        -0.2253361554       22.1439002130       11.9652657159
 Si         1.8250909076       21.1835903294       11.6223932692
 Si        -1.9416644256       25.6360698566       12.1091816206
 Si        -0.0609317334       24.4265681069       11.6669182012
 Si        15.4271015370        2.2469649838       12.1666318028
 Si        17.3293693566        1.0808091449       11.6470934213
 Si        13.3872753960        5.5477111238       12.1597613991
 Si        15.3692100000        4.4833765196       11.6233706795
 Si        11.5863206614        8.9138570716       12.2202899618
 Si        13.5089380326        7.7745704902       11.6661125143
 Si         9.5563079646       12.1870625706       12.0874287569
 Si        11.5468078234       11.1239935404       11.6571462780
 Si         7.5513583808       15.5626064543       11.8946955860
 Si         9.5268453512       14.4092793437       11.4935336866
 Si         5.6947546005       18.8087831727       11.8811355340
 Si         7.5845907852       17.7350835245       11.2558010587
 Si         3.8112723160       22.2554393463       12.0158015389
 Si         5.7069903786       21.0947471369       11.4623256264
 Si         1.8791151331       25.5690035839       12.0988960802
 Si         3.8370037287       24.5083279250       11.5812318177
 Si        19.2499580729        2.2360810607       12.1510724470
 Si        21.2052623175        1.1489316943       11.6372934589
 Si        17.3227046579        5.6042236215       12.1654152025
 Si        19.2672389504        4.4779834722       11.6271995727
 Si        15.4734955247        8.8596287052       12.1989964948
  P        17.3637278878        7.7888133292       11.5748824720
 Si        13.5010361439       12.1946049195       12.1983340928
 Si        15.4497034220       11.0980484923       11.6691199312
 Si        11.5179860441       15.5286346499       11.9743592805
 Si        13.4975747873       14.4154035760       11.6513219207
 Al         9.6139714342       18.9155574133       11.6555846761
 Si        11.6550394561       17.7311503134       11.3883022376
 Si         7.6578222966       22.2729379489       11.9237101904
 Si         9.6262110951       21.2770693427       11.3597630452
 Si         5.7503984374       25.6564204922       12.1049444918
 Si         7.6768508425       24.5428744076       11.5851139294
 Si        23.1649171346        2.2330127034       12.1361774398
 Si        25.1150836230        1.1389603634       11.6328286136
 Si        21.2362763443        5.5594204769       12.1466659518
 Si        23.1972989230        4.4688626156       11.6607808608
 Si        19.2576590130        8.8765562038       12.2023980214
 Si        21.2155063375        7.7959155243       11.6505292265
 Si        17.3665022950       12.2501266575       12.1770770906
 Si        19.2882099352       11.1170397784       11.6679181102
 Si        15.4185718750       15.5866858215       12.1418760366
 Si        17.3816359044       14.4883586963       11.7025362265
 Si        13.5114305383       18.9223600012       11.9810982700
 Si        15.4833056214       17.8289403013       11.6566589221
 Si        11.5661289029       22.3226739891       11.9372276226
 Si        13.5240333679       21.1863036737       11.5052180877
 Si         9.6460162057       25.6376341493       12.0748242677
 Si        11.6175580136       24.5765703627       11.5855458611
 Si        27.0613874692        2.2708028949       12.1298586143
 Si        29.0101093864        1.1739519703       11.6395594727
 Si        25.1504845750        5.5810533969       12.1685243042
 Si        27.1285023186        4.5177869622       11.6618089445
 Si        23.1559823696        8.9215302815       12.2007009806
 Si        25.1024094778        7.8117935965       11.6857013523
 Si        21.2302749255       12.2239210334       12.2279675781
 Si        23.1843699731       11.1593551676       11.7091319106
 Si        19.3315420717       15.5986534097       12.2123260070
 Si        21.2756592080       14.4724639654       11.7458354675
 Si        17.4069689848       18.9582856014       12.1597421418
 Si        19.3470469208       17.8353397864       11.7129345013
 Si        15.4508086692       22.3185323466       12.0551796106
 Si        17.4072348717       21.1902298057       11.6271883976
 Si        13.5541924992       25.6848663605       12.1016915625
 Si        15.5002327192       24.5849987175       11.5971103646
  H         0.7422381302       14.3918790410       16.1419239409
  C         1.7456981352       14.5317334361       15.7027079949
  H         2.5837770698       14.7419417843       16.3892971956
  O         1.9310957521       14.4315163087       14.4994873713
     132
 i =        4, E =      -531.3165749042
 Si         0.0602888836        2.2884900204       12.1742530434
 Si         2.0262905186        1.2610941647       11.6454242235
 Si        -1.7885905802        5.6345075857       12.1740831775
 Si         0.1694589384        4.5079615610       11.6576681392
 Si        -3.8412061044        8.9209114674       12.1912133448
 Si        -1.8609722282        7.8800849378       11.6936346651
 Si        -5.7596333773       12.2909825141       12.1967645784
 Si        -3.8548538059       11.1469595491       11.6805276300
 Si        -7.6504784962       15.5901228013       12.2180589045
 Si        -5.6744510903       14.5275999494       11.6957654548
 Si        -9.6113333534       18.9554535227       12.2122588469
 Si        -7.6888674519       17.8234540525       11.7142559138
 Si       -11.5481858017       22.3111800369       12.1432210337
 Si        -9.5873136938       21.1910057515       11.6988872127
 Si       -13.4521377038       25.7361196616       12.1113637635
 Si       -11.5545477006       24.5493099192       11.6356795047
 Si         3.9790977203        2.4052278203       12.1956595076
 Si         5.8062728314        1.1363893018       11.7070772800
 Si         2.1286235433        5.6371007268       12.1958707360
 Si         4.1933661108        4.6790206270       11.7140724789
 Si         0.0784112227        9.0437972353       12.1587198080
 Si         1.9459067086        7.8423204352       11.6480830353
 Si        -1.9075871856       12.2736014328       12.0837207552
 Si         0.0742447740       11.2813192922       11.5928422862
 Si        -3.7015596342       15.6501674496       12.1493933966
 Si        -1.7817405700       14.4872761860       11.6223336821
 Si        -5.7477903878       18.9457244879       12.1410085745
 Si        -3.7766231592       17.8905137672       11.6994427630
 Si        -7.6228189060       22.2994077947       12.1353300783
 Si        -5.6686981424       21.1788457521       11.6889352921
 Si        -9.6192478143       25.6416147300       12.1589314392
 Si        -7.6861637358       24.5324852487       11.6342410500
 Si         7.6465901913        2.3823307480       12.1743766151
 Si         9.5967499303        1.1891254552       11.6234890881
  N         5.7795607966        5.6043531039       11.8290122259
 Si         7.3777302892        4.6694817816       11.7010354852
 Si         3.9021862004        8.8622473805       12.1565184813
 Si         5.7693133171        7.4723887912       11.6492675755
 Si         1.9343730512       12.6183322374       11.8478908943
 Si         3.8031345712       11.1695777560       11.6036509142
 Si         0.3194818368       15.4237715042       11.8014285932
  C         1.9104420453       14.4716556411       11.5716671448
 Si        -1.8786502226       19.1244377874       11.9639465805
 Si        -0.0025917682       17.7526522698       11.6879108419
 Si        -3.6022027040       22.1396011818       11.9835034022
  B        -1.9006571973       21.1169852015       11.8776601823
 Si        -5.7697818388       25.6578685945       12.1231949698
 Si        -3.8357304755       24.4435987865       11.6815513070
 Si        11.5375679187        2.2386909371       12.1742628432
 Si        13.4870281605        1.1347174329       11.6646055105
 Si         9.4518708133        5.5943401716       12.2092913654
 Si        11.4129808846        4.4558260065       11.6493780565
 Si         7.6332756440        8.7502484331       12.2121701436
 Si         9.6491908751        7.8010160719       11.7080858666
 Si         5.7446913896       12.1988986293       12.1021652592
 Si         7.6246056481       10.9955296034       11.6211157421
 Si         3.5040340777       15.3837371116       11.7873799842
 Si         5.5952092158       14.4021405266       11.5700760691
 Si         1.8894186655       18.9313213965       11.9940468224
 Si         3.7197419238       17.6824011448       11.5603868326
 Si        -0.2251738241       22.1434855340       11.9653168873
 Si         1.8248903438       21.1823680887       11.6258711452