     132
 i =        1, E =      -531.3185585464
 Si         0.0602160735        2.2882736546       12.1747587207
 Si         2.0270324412        1.2618653702       11.6453654728
 Si        -1.7884579359        5.6337419287       12.1739674888
 Si         0.1702110325        4.5080869239       11.6589011855
 Si        -3.8405709462        8.9211583047       12.1914992059
 Si        -1.8612375251        7.8785227562       11.6906882706
 Si        -5.7592649418       12.2921126031       12.1966345256
 Si        -3.8571163375       11.1456567902       11.6739002617
 Si        -7.6507013724       15.5900653161       12.2189900611
 Si        -5.6767968089       14.5279141767       11.6896340380
 Si        -9.6113977511       18.9554804429       12.2124042276
 Si        -7.6891127371       17.8232597053       11.7145960363
 Si       -11.5480025267       22.3107938718       12.1438743427
 Si        -9.5872492917       21.1908209635       11.6990480808
 Si       -13.4528963583       25.7366795057       12.1115791458
 Si       -11.5549093232       24.5491575206       11.6371052397
 Si         3.9788807036        2.4072210285       12.1952590038
 Si         5.8061077716        1.1379298649       11.7076094743
 Si         2.1298010652        5.6346704690       12.1972579320
 Si         4.1956371408        4.6805906698       11.7183591953
 Si         0.0778073344        9.0398324378       12.1571421167
 Si         1.9467819647        7.8389466429       11.6452251873
 Si        -1.9103550657       12.2704801383       12.0880645394
 Si         0.0780182546       11.2830442716       11.6058028300
 Si        -3.7053961740       15.6503608745       12.1481118267
 Si        -1.7797452211       14.4878565179       11.6395134199
 Si        -5.7487058569       18.9461204589       12.1435461026
 Si        -3.7788310583       17.8905897453       11.6963094598
 Si        -7.6227919254       22.2993430879       12.1352457400
 Si        -5.6687520200       21.1787245569       11.6888150649
 Si        -9.6196459460       25.6422096176       12.1593755130
 Si        -7.6863197383       24.5326343226       11.6349476214
 Si         7.6460921832        2.3843367364       12.1733027938
 Si         9.5961006743        1.1898091037       11.6231406410
  N         5.7815397417        5.6053364175       11.7234920029
 Si         7.3775951665        4.6704932823       11.7048102506
 Si         3.9042813256        8.8556733234       12.1575579659
 Si         5.7701138287        7.4733497472       11.6476219636
 Si         1.9342432758       12.5933348405       12.0020653196
 Si         3.7998566053       11.1679029372       11.6224162917
 Si         0.3003043120       15.4353340422       11.9473401604
  C         1.9095949085       14.4693676864       11.8559057754
 Si        -1.8830734995       19.1286576015       11.9637936794
 Si        -0.0051002561       17.7548166895       11.7111908773
 Si        -3.6028834985       22.1404649006       11.9830980065
  B        -1.9015687674       21.1191953880       11.8730333547
 Si        -5.7692312465       25.6584035009       12.1228842164
 Si        -3.8359326293       24.4439413259       11.6814801710
 Si        11.5375562491        2.2388479598       12.1744669042
 Si        13.4869056322        1.1344135009       11.6649287174
 Si         9.4514418107        5.5933788459       12.2084810163
 Si        11.4122421057        4.4565353421       11.6492716210
 Si         7.6314833447        8.7489309719       12.2107068166
 Si         9.6477427301        7.7998683669       11.7101727049
 Si         5.7482149242       12.1947791267       12.1078194925
 Si         7.6273839261       10.9936632416       11.6165691597
 Si         3.5224390005       15.3953904600       11.9231708751
 Si         5.5915303914       14.4024828442       11.5918085943
 Si         1.8887650742       18.9371705879       11.9990131100
 Si         3.7189895274       17.6804623392       11.5805214504
 Si        -0.2252308345       22.1438550800       11.9658317918
 Si         1.8256431982       21.1860158548       11.6192616443
 Si        -1.9418090542       25.6358519873       12.1099687102
 Si        -0.0610964515       24.4265848280       11.6667102566
 Si        15.4274015743        2.2468566993       12.1662748759
 Si        17.3295222371        1.0806931249       11.6468189493
 Si        13.3869865374        5.5474868322       12.1593884065
 Si        15.3691852785        4.4834322447       11.6237346854
 Si        11.5857262483        8.9137851148       12.2200359135
 Si        13.5087374546        7.7747161072       11.6661154538
 Si         9.5559020610       12.1876299908       12.0878509915
 Si        11.5465801697       11.1241585758       11.6572891003
 Si         7.5528185980       15.5631278064       11.8928776036
 Si         9.5278195658       14.4088608249       11.4908700407
 Si         5.6966064788       18.8104653118       11.8784488847
 Si         7.5855362400       17.7350542638       11.2552932294
 Si         3.8118812525       22.2555261114       12.0169802827
 Si         5.7070576714       21.0959625001       11.4596254720
 Si         1.8790341700       25.5685757195       12.0989804831
 Si         3.8370358369       24.5082037124       11.5806634260
 Si        19.2499342404        2.2358620514       12.1509579373
 Si        21.2051497728        1.1486267922       11.6369249995
 Si        17.3227975121        5.6042706891       12.1651274378
 Si        19.2671904160        4.4779982729       11.6278099304
 Si        15.4735813200        8.8598315244       12.1990510453
  P        17.3638846743        7.7889517468       11.5751724340
 Si        13.5010932739       12.1948135742       12.1983063638
 Si        15.4496762311       11.0978699031       11.6690712671
 Si        11.5181663958       15.5285668534       11.9750495233
 Si        13.4976900515       14.4155321081       11.6511275249
 Al         9.6144720718       18.9159834664       11.6564828707
 Si        11.6550276987       17.7306714035       11.3882523203
 Si         7.6577295223       22.2728326904       11.9243729394
 Si         9.6259270982       21.2771430331       11.3595298948
 Si         5.7504860759       25.6561747706       12.1054449241
 Si         7.6768810575       24.5427669229       11.5846375356
 Si        23.1647362013        2.2328389317       12.1360058964
 Si        25.1150036911        1.1387560288       11.6331496226
 Si        21.2363202980        5.5594975576       12.1467073923
 Si        23.1972399191        4.4688186204       11.6608205674
 Si        19.2578361223        8.8768180952       12.2022515602
 Si        21.2156092321        7.7959479045       11.6508775499
 Si        17.3665357954       12.2501811253       12.1770271088
 Si        19.2882133512       11.1171833874       11.6675881549
 Si        15.4185507448       15.5868522390       12.1422567942
 Si        17.3814959889       14.4882843431       11.7026391433
 Si        13.5114459193       18.9221496815       11.9812936769
 Si        15.4835095688       17.8288421425       11.6567090636
 Si        11.5660205807       22.3227305595       11.9373262086
 Si        13.5238550535       21.1860408409       11.5050153267
 Si         9.6459642784       25.6375362289       12.0752073833
 Si        11.6175472517       24.5766686230       11.5853863246
 Si        27.0611873896        2.2708503737       12.1303394928
 Si        29.0098560728        1.1738341180       11.6399514472
 Si        25.1504615879        5.5810440517       12.1686147983
 Si        27.1284909600        4.5178069795       11.6618493366
 Si        23.1563977152        8.9219560539       12.2008895350
 Si        25.1027380053        7.8118614418       11.6859070751
 Si        21.2303127403       12.2241201261       12.2280722447
 Si        23.1845957800       11.1596436938       11.7090797237
 Si        19.3315051366       15.5985545084       12.2122253892
 Si        21.2757165767       14.4724555176       11.7455479095
 Si        17.4071613528       18.9583811219       12.1601085170
 Si        19.3470780263       17.8352938073       11.7126618378
 Si        15.4507093212       22.3184578199       12.0552397641
 Si        17.4071348103       21.1901978822       11.6274145059
 Si        13.5541493152       25.6847530323       12.1018557786
 Si        15.5002419845       24.5847286759       11.5977086703
  H         4.6091193162        5.5109527855       16.0023473140
  C         5.6183061678        5.6619403600       15.5682113216
  H         6.4810162962        5.8650062446       16.2335618434
  O         5.7828674617        5.6005366586       14.3647029958
     132
 i =        2, E =      -531.3194840270
 Si         0.0599058341        2.2879596502       12.1747915633
 Si         2.0267778866        1.2626752835       11.6457465878
 Si        -1.7882132271        5.6338259661       12.1738112128
 Si         0.1705639280        4.5072755504       11.6593303478
 Si        -3.8404351959        8.9210944763       12.1913716855
 Si        -1.8610752333        7.8785626799       11.6907180870
 Si        -5.7593613598       12.2921610667       12.1966943921
 Si        -3.8571408212       11.1457163667       11.6740324162
 Si        -7.6507053938       15.5900272428       12.2188641928
 Si        -5.6767628946       14.5279463085       11.6897336109
 Si        -9.6113426119       18.9553951774       12.2123057826
 Si        -7.6890431408       17.8232070529       11.7145798092
 Si       -11.5479600947       22.3110657677       12.1436714871
 Si        -9.5872404670       21.1908046836       11.6989789866
 Si       -13.4526568531       25.7369063978       12.1115071206
 Si       -11.5546037198       24.5493894042       11.6370707625
 Si         3.9795522448        2.4093117602       12.1943973286
 Si         5.8059420301        1.1390291050       11.7079629274
 Si         2.1316649969        5.6341055338       12.1966082026
 Si         4.1995611003        4.6830796643       11.7131050423
 Si         0.0780513222        9.0397489744       12.1567707616
 Si         1.9470590959        7.8381333781       11.6462987367
 Si        -1.9102390741       12.2704027505       12.0880723159
 Si         0.0780450909       11.2829294494       11.6060756764
 Si        -3.7054052450       15.6504200021       12.1481082983
 Si        -1.7797137026       14.4879187786       11.6396739448
 Si        -5.7486809618       18.9460564523       12.1434090785
 Si        -3.7787726839       17.8906166770       11.6962355097
 Si        -7.6227956105       22.2994651474       12.1350893021
 Si        -5.6687429493       21.1786339776       11.6889057984
 Si        -9.6195584362       25.6428785956       12.1587434439
 Si        -7.6863870801       24.5327724638       11.6352002713
 Si         7.6450143839        2.3865843041       12.1716893451
 Si         9.5963805374        1.1905555737       11.6234972479
  N         5.7828477758        5.6069272983       11.6656176818
 Si         7.3751381612        4.6722444852       11.6960088746
 Si         3.9057865644        8.8532126252       12.1556678845
 Si         5.7706380358        7.4717115526       11.6354824949
 Si         1.9340801919       12.5929362544       12.0021684548
 Si         3.8007217056       11.1679268506       11.6229418195
 Si         0.3004934450       15.4352262822       11.9475736538
  C         1.9098557791       14.4691397690       11.8558786067
 Si        -1.8831331599       19.1285948270       11.9637847172
 Si        -0.0050944750       17.7547838187       11.7112105710
 Si        -3.6029109137       22.1405050061       11.9831429040
  B        -1.9015858360       21.1191877951       11.8731750796
 Si        -5.7694305599       25.6587310330       12.1229667418
 Si        -3.8358323789       24.4442599033       11.6814917019
 Si        11.5376996757        2.2385087574       12.1746906631
 Si        13.4867396673        1.1344389592       11.6646993798
 Si         9.4497332951        5.5929241118       12.2070384425
 Si        11.4119422945        4.4558409148       11.6497069539
 Si         7.6301793593        8.7467442046       12.2090005053
 Si         9.6474662481        7.7993147827       11.7108303015
 Si         5.7483551649       12.1951195304       12.1079173221
 Si         7.6265829397       10.9936669560       11.6171699678
 Si         3.5225348263       15.3954692057       11.9230268955
 Si         5.5915264962       14.4023942364       11.5915486636
 Si         1.8887925734       18.9371919684       11.9988841512
 Si         3.7190696377       17.6804695162       11.5806366565
 Si        -0.2252464381       22.1439155855       11.9657757533
 Si         1.8255974600       21.1860588146       11.6193504462
 Si        -1.9416549784       25.6359995828       12.1098238872
 Si        -0.0610316754       24.4265744683       11.6666883281
 Si        15.4272410118        2.2466704721       12.1662077606
 Si        17.3295037787        1.0806100097       11.6469923304
 Si        13.3866749677        5.5475378804       12.1593606954
 Si        15.3691190164        4.4831976636       11.6236566984
 Si        11.5855912598        8.9136951529       12.2195590615
 Si        13.5086534155        7.7746585361       11.6663044320
 Si         9.5557909469       12.1871943277       12.0880886242
 Si        11.5464924643       11.1241019721       11.6576179833
 Si         7.5527242199       15.5631701566       11.8927747046
 Si         9.5275174189       14.4087767208       11.4907032303
 Si         5.6966546503       18.8106681157       11.8785035066
 Si         7.5855700183       17.7351901857       11.2553938118
 Si         3.8118074043       22.2554799967       12.0169909859
 Si         5.7070437715       21.0960372358       11.4594370999
 Si         1.8791226208       25.5685089317       12.0989923403
 Si         3.8370783571       24.5080188162       11.5807769206
 Si        19.2499469874        2.2358339499       12.1509641582
 Si        21.2052058976        1.1485856878       11.6370259023
 Si        17.3227796675        5.6042913340       12.1651708094
 Si        19.2672485505        4.4779091321       11.6277226823
 Si        15.4734298383        8.8597409608       12.1989497232
  P        17.3638440137        7.7890101702       11.5750380277
 Si        13.5009665185       12.1947804083       12.1981070247
 Si        15.4496770374       11.0978690324       11.6691700305
 Si        11.5180768891       15.5286056309       11.9751823939
 Si        13.4976437426       14.4155873845       11.6511580577
 Al         9.6144894642       18.9160607635       11.6565035313
 Si        11.6549550314       17.7308072175       11.3881611384
 Si         7.6576973024       22.2727801844       11.9243977577
 Si         9.6259076730       21.2771206397       11.3594867924
 Si         5.7504917665       25.6561758224       12.1053579906
 Si         7.6768229755       24.5426331414       11.5846661647
 Si        23.1648061886        2.2328461366       12.1360056530
 Si        25.1150020591        1.1386779073       11.6331053045
 Si        21.2363646279        5.5595815801       12.1466179404
 Si        23.1972694563        4.4687926503       11.6607793374
 Si        19.2578402780        8.8767828721       12.2022052233
 Si        21.2155724061        7.7959655319       11.6507837697
 Si        17.3665811260       12.2502130488       12.1770724860
 Si        19.2882805453       11.1171587703       11.6676885239
 Si        15.4185360144       15.5868688246       12.1421801514
 Si        17.3815353101       14.4883314328       11.7026812828
 Si        13.5115264976       18.9222151477       11.9812108431
 Si        15.4834115804       17.8288286847       11.6566033997
 Si        11.5659206811       22.3227088355       11.9373146464
 Si        13.5238003443       21.1861018329       11.5049433055
 Si         9.6459059686       25.6375023544       12.0751638468
 Si        11.6174921617       24.5766193958       11.5853821708
 Si        27.0613316835        2.2705789131       12.1301310150
 Si        29.0099560652        1.1738467162       11.6395899654
 Si        25.1505549548        5.5810927062       12.1686921807
 Si        27.1285829576        4.5175222362       11.6618108785
 Si        23.1563662393        8.9219256231       12.2007410354
 Si        25.1027328629        7.8119116295       11.6859088005
 Si        21.2303350388       12.2241702730       12.2281381311
 Si        23.1845439678       11.1596222373       11.7091660011
 Si        19.3315649948       15.5985883870       12.2122517889
 Si        21.2757501951       14.4724802324       11.7456047167
 Si        17.4070771950       18.9582893968       12.1599728387
 Si        19.3470716215       17.8352922832       11.7127202881
 Si        15.4507769011       22.3185264675       12.0552145172
 Si        17.4072161361       21.1901171670       11.6274250861
 Si        13.5538812252       25.6849802841       12.1018577537
 Si        15.5000866433       24.5850717113       11.5975942544
  H         4.6176110923        5.5155873144       16.0305849828
  C         5.6202121777        5.6586136649       15.5840002702
  H         6.4656500171        5.8665432786       16.2661366604
  O         5.7837649000        5.5948622433       14.3781730065
     132
 i =        3, E =      -531.3199741574
 Si         0.0595453722        2.2876008474       12.1753381853
 Si         2.0268367584        1.2637716363       11.6463153274
 Si        -1.7877089106        5.6337699476       12.1738513863
 Si         0.1713099998        4.5065166947       11.6599398639
 Si        -3.8402574792        8.9209637492       12.1911801821
 Si        -1.8608198186        7.8784372548       11.6907857214
 Si        -5.7594073940       12.2921917575       12.1968025073
 Si        -3.8571607154       11.1457697179       11.6742033814
 Si        -7.6506900994       15.5899954862       12.2187266747
 Si        -5.6767353195       14.5279793646       11.6898194294
 Si        -9.6112903818       18.9553146817       12.2122003971
 Si        -7.6890090613       17.8231258951       11.7145041985
 Si       -11.5479405608       22.3114352232       12.1433598452
 Si        -9.5872162841       21.1908649056       11.6989341150
 Si       -13.4522984939       25.7374992069       12.1115154385
 Si       -11.5544127858       24.5498496254       11.6370543035
 Si         3.9807953881        2.4127484283       12.1925441955
 Si         5.8056889416        1.1398609347       11.7075802475
 Si         2.1348538984        5.6333629571       12.1950297304
 Si         4.2035961522        4.6858658596       11.6975236572
 Si         0.0784056458        9.0395808014       12.1565263549
 Si         1.9471016067        7.8374492972       11.6466076939
 Si        -1.9100552900       12.2703521148       12.0880893000
 Si         0.0782876462       11.2828448229       11.6063554383
 Si        -3.7053680678       15.6503672128       12.1481554684
 Si        -1.7795651899       14.4879444937       11.6398971902
 Si        -5.7486936739       18.9460422775       12.1432946463
 Si        -3.7787054455       17.8906546226       11.6961158087
 Si        -7.6227804389       22.2997080141       12.1348630277
 Si        -5.6687025870       21.1786716850       11.6889639080
 Si        -9.6194577449       25.6436956757       12.1580106990
 Si        -7.6863314603       24.5331619743       11.6355119537
 Si         7.6437585822        2.3900042209       12.1687300532
 Si         9.5964054948        1.1913319076       11.6239017097
  N         5.7838422260        5.6084971230       11.6397051490
 Si         7.3723876014        4.6746416189       11.6764703763
 Si         3.9082073965        8.8504279813       12.1522355382
 Si         5.7714608419        7.4688609493       11.6127271061
 Si         1.9344303916       12.5924341966       12.0024112906
 Si         3.8013284481       11.1676913882       11.6234797384
 Si         0.3007546516       15.4351215334       11.9477743390
  C         1.9099936004       14.4687747920       11.8558779583
 Si        -1.8830507333       19.1285775496       11.9638010163
 Si        -0.0050546304       17.7546758448       11.7112715793
 Si        -3.6029283833       22.1407075565       11.9832364978
  B        -1.9016722879       21.1192172578       11.8732714167
 Si        -5.7696446364       25.6593307488       12.1231669015
 Si        -3.8359596172       24.4446004198       11.6815295148
 Si        11.5378524682        2.2381448137       12.1754148015
 Si        13.4867427204        1.1343574346       11.6641387326
 Si         9.4468871263        5.5920997316       12.2042493962
 Si        11.4115980551        4.4551251013       11.6502792185
 Si         7.6280379250        8.7439714150       12.2059506889
 Si         9.6475368714        7.7989715717       11.7105427136
 Si         5.7483660711       12.1954211825       12.1084378118
 Si         7.6259036487       10.9934144372       11.6179482240
 Si         3.5225251851       15.3953449568       11.9228861180
 Si         5.5915094436       14.4025759077       11.5909752965
 Si         1.8887559869       18.9371856396       11.9987457702
 Si         3.7191553977       17.6804608084       11.5807500577
 Si        -0.2252733906       22.1439449605       11.9657679180
 Si         1.8255600096       21.1861289972       11.6194246936
 Si        -1.9415551782       25.6360771728       12.1096688655
 Si        -0.0609224821       24.4265718947       11.6666183108
 Si        15.4271013270        2.2466193931       12.1661434198
 Si        17.3294915130        1.0804896773       11.6471497622
 Si        13.3862599824        5.5474100322       12.1595315630
 Si        15.3689319952        4.4831031058       11.6235606610
 Si        11.5854232880        8.9135646378       12.2192161076
 Si        13.5085025112        7.7744342646       11.6665297265
 Si         9.5554195493       12.1867328785       12.0885707260
 Si        11.5461820533       11.1240544879       11.6579666608
 Si         7.5527319828       15.5631343120       11.8926388991
 Si         9.5273098441       14.4084907923       11.4905635473
 Si         5.6967167460       18.8108913974       11.8786041412
 Si         7.5855682804       17.7353177784       11.2554782637
 Si         3.8117824084       22.2554560876       12.0170447434
 Si         5.7070129006       21.0961558234       11.4591978198
 Si         1.8792526525       25.5683990440       12.0990845169
 Si         3.8371383853       24.5078675360       11.5808678088
 Si        19.2499833170        2.2358339072       12.1510316642
 Si        21.2052596850        1.1484954098       11.6370987982
 Si        17.3226500212        5.6041992123       12.1651973530
 Si        19.2672277543        4.4778732341       11.6276288001
 Si        15.4732699439        8.8595787998       12.1987950379
  P        17.3637658116        7.7889488590       11.5748249618
 Si        13.5007769669       12.1947491861       12.1978619964
 Si        15.4496516723       11.0978692018       11.6692844764
 Si        11.5177754574       15.5286003505       11.9752592451
 Si        13.4974628718       14.4156766796       11.6511791159
 Al         9.6145516119       18.9161266183       11.6565846372
 Si        11.6549249735       17.7308400671       11.3880599393
 Si         7.6576127934       22.2727576179       11.9244611524
 Si         9.6258477541       21.2771715976       11.3593787279
 Si         5.7505105136       25.6561184810       12.1052744603
 Si         7.6767468195       24.5424997408       11.5846699298
 Si        23.1648517383        2.2328805598       12.1360617473
 Si        25.1149807290        1.1385347128       11.6329883745
 Si        21.2364052716        5.5595535339       12.1464831834
 Si        23.1973873623        4.4688087507       11.6607377777
 Si        19.2577722941        8.8767459321       12.2022155237
 Si        21.2155218883        7.7959653017       11.6505907848
 Si        17.3665968321       12.2502358251       12.1771522525
 Si        19.2883511086       11.1171557049       11.6677944591
 Si        15.4185140836       15.5867960601       12.1421243159
 Si        17.3815985902       14.4883802157       11.7027110977
 Si        13.5114819167       18.9223359254       11.9810775922
 Si        15.4833212931       17.8288574829       11.6564239472
 Si        11.5658664297       22.3226780008       11.9373407709
 Si        13.5238396153       21.1862371262       11.5048978968
 Si         9.6457760236       25.6374039434       12.0751515486
 Si        11.6173671484       24.5765767399       11.5853281599
 Si        27.0614067657        2.2704654693       12.1299110302
 Si        29.0098666352        1.1737142391       11.6387970114
 Si        25.1507566234        5.5810322129       12.1687708738
 Si        27.1288280710        4.5173990541       11.6617250041
 Si        23.1563805526        8.9218933033       12.2006307632
 Si        25.1027908463        7.8118558381       11.6858518073
 Si        21.2303473479       12.2241761729       12.2282214531
 Si        23.1844722961       11.1596347631       11.7092423673
 Si        19.3316156307       15.5986099844       12.2122834585
 Si        21.2757786605       14.4725345812       11.7457028303
 Si        17.4070517746       18.9582895781       12.1598494831
 Si        19.3470832271       17.8352532283       11.7127617194
 Si        15.4508376417       22.3187575817       12.0551563885
 Si        17.4072440052       21.1901877999       11.6273908986
 Si        13.5537120866       25.6850556166       12.1018814197
 Si        15.5001638221       24.5854926884       11.5974430762
  H         4.6165014901        5.5161534561       16.0568364395
  C         5.6172357171        5.6606747347       15.6067024217
  H         6.4601630539        5.8675583766       16.2930552684
  O         5.7875107263        5.5872505709       14.4006707822
     132
 i =        4, E =      -531.3205689636
 Si         0.0592985863        2.2871407839       12.1764037238
 Si         2.0280918794        1.2660622774       11.6473424429
 Si        -1.7863010550        5.6332957234       12.1739240582
 Si         0.1734759712        4.5059683867       11.6610613192
 Si        -3.8399421790        8.9206667972       12.1906440660
 Si        -1.8602076677        7.8780100804       11.6913111103
 Si        -5.7593898734       12.2921712085       12.1970180206
 Si        -3.8571149182       11.1458147199       11.6745888631
 Si        -7.6505780745       15.5900018527       12.2185324661
 Si        -5.6765846353       14.5279690765       11.6899581283
 Si        -9.6112011957       18.9552890886       12.2119837800
 Si        -7.6889530893       17.8230808326       11.7142897713
 Si       -11.5479336636       22.3121255150       12.1425576596
 Si        -9.5871653790       21.1911067994       11.6989075586
 Si       -13.4516899293       25.7393073446       12.1113804761
 Si       -11.5542852364       24.5509191748       11.6372195335
 Si         3.9832017417        2.4198879503       12.1869475936
 Si         5.8053943471        1.1411234010       11.7056896016
 Si         2.1414207487        5.6319604166       12.1899972603
 Si         4.2085218766        4.6895634360       11.6637232145
 Si         0.0791758417        9.0390939670       12.1563643312
 Si         1.9471234813        7.8368976065       11.6460401950
 Si        -1.9096067574       12.2701975994       12.0880173186
 Si         0.0789912515       11.2825818104       11.6070591656
 Si        -3.7052348107       15.6502768906       12.1482572067
 Si        -1.7793128639       14.4878651667       11.6404318677
 Si        -5.7486705384       18.9461153612       12.1430525289
 Si        -3.7786246953       17.8906985740       11.6959404969
 Si        -7.6227345162       22.3002242631       12.1342922163
 Si        -5.6686356241       21.1788938561       11.6890727607
 Si        -9.6193099056       25.6453844079       12.1568709044
 Si        -7.6861237804       24.5341157499       11.6361807975
 Si         7.6419009575        2.3970068050       12.1607894432
 Si         9.5953419020        1.1929188991       11.6244754000
  N         5.7850951029        5.6104376301       11.6183379375
 Si         7.3695084976        4.6780118509       11.6353726557
 Si         3.9136369567        8.8457804687       12.1429689216
 Si         5.7730678738        7.4651167323       11.5667501866
 Si         1.9356496575       12.5915204140       12.0024970609
 Si         3.8017433679       11.1663215397       11.6242596868
 Si         0.3012321251       15.4348023353       11.9480268451
  C         1.9102224442       14.4681602798       11.8560877872
 Si        -1.8829079318       19.1286322807       11.9638683993
 Si        -0.0048834790       17.7545155425       11.7114671257
 Si        -3.6029818259       22.1411594378       11.9834281099
  B        -1.9018363084       21.1193448709       11.8734165430
 Si        -5.7699320674       25.6610128288       12.1233785293
 Si        -3.8364182694       24.4451711852       11.6817584497
 Si        11.5377787991        2.2376734187       12.1766818468
 Si        13.4868413129        1.1341812036       11.6631508505
 Si         9.4410425417        5.5904312032       12.1966182066
 Si        11.4104633357        4.4545155364       11.6510925618
 Si         7.6233791038        8.7387855150       12.1975676309
 Si         9.6478900590        7.7987785708       11.7087315637
 Si         5.7482243329       12.1954722252       12.1092129799
 Si         7.6252608805       10.9918891405       11.6194438740
 Si         3.5225227641       15.3950990641       11.9226273897
 Si         5.5914564853       14.4029062447       11.5900166875
 Si         1.8887968107       18.9371633437       11.9984795396
 Si         3.7192619183       17.6804303032       11.5809603787
 Si        -0.2253034523       22.1439860094       11.9657936009
 Si         1.8254426835       21.1861875316       11.6195728295