     132
 i =        1, E =      -531.3090709642
 Si         0.0601407946        2.2882765291       12.1748715502
 Si         2.0262811818        1.2615313290       11.6453986300
 Si        -1.7885397171        5.6340626415       12.1744659154
 Si         0.1696182163        4.5076411894       11.6585090717
 Si        -3.8404408640        8.9210056366       12.1915552721
 Si        -1.8611739693        7.8785879094       11.6906247874
 Si        -5.7593719212       12.2921311441       12.1967033675
 Si        -3.8568264394       11.1457490895       11.6737749437
 Si        -7.6512201489       15.5899657897       12.2189394564
 Si        -5.6769733617       14.5281007698       11.6897549163
 Si        -9.6115941030       18.9553410851       12.2124410693
 Si        -7.6881959278       17.8238719352       11.7146144819
 Si       -11.5480417149       22.3111697640       12.1439628656
 Si        -9.5872444146       21.1903052965       11.6990795752
 Si       -13.4523723178       25.7364374890       12.1118513846
 Si       -11.5549258556       24.5491046212       11.6369513237
 Si         3.9793488520        2.4058053021       12.1959408094
 Si         5.8059198187        1.1363203969       11.7068684296
 Si         2.1293114155        5.6357314224       12.1980324065
 Si         4.1936769952        4.6791547898       11.7116504455
 Si         0.0775575518        9.0400521970       12.1574056211
 Si         1.9460053916        7.8397890119       11.6436026698
 Si        -1.9103223647       12.2701193320       12.0882352307
 Si         0.0781489729       11.2830291580       11.6056744267
 Si        -3.7052585368       15.6506364091       12.1477295829
 Si        -1.7795586959       14.4880646963       11.6397240313
 Si        -5.7500386529       18.9457162553       12.1454591678
 Si        -3.7790170157       17.8916770341       11.6949681535
 Si        -7.6224706488       22.2994034233       12.1350668507
 Si        -5.6691761319       21.1776818581       11.6876380975
 Si        -9.6198091430       25.6421627735       12.1594980588
 Si        -7.6861925770       24.5327486189       11.6353446256
 Si         7.6462699936        2.3826230991       12.1740582780
 Si         9.5970636813        1.1893601315       11.6230555993
  N         5.7803486739        5.6047500610       11.8243996827
 Si         7.3778023521        4.6695697152       11.7013234996
 Si         3.9025646866        8.8569315748       12.1589122819
 Si         5.7702625788        7.4724074422       11.6465072968
 Si         1.9337415742       12.5935038521       12.0025404584
 Si         3.7998645644       11.1690162900       11.6219974168
 Si         0.3003337509       15.4355888291       11.9467849610
  C         1.9096273295       14.4694822183       11.8559562081
 Si        -1.8831480501       19.1222589628       11.9491065900
 Si        -0.0047329525       17.7552267598       11.7097818167
 Si        -3.6082747481       22.1432290687       11.9690595675
  B        -1.9022673328       21.1200692085       11.8195438805
 Si        -5.7691551502       25.6579363467       12.1231111015
 Si        -3.8354087504       24.4435919613       11.6791347666
 Si        11.5377216299        2.2391791908       12.1745755669
 Si        13.4868526263        1.1333581519       11.6650468941
 Si         9.4521766549        5.5943128643       12.2090624864
 Si        11.4130510661        4.4555111593       11.6490067837
 Si         7.6324038896        8.7501542105       12.2123191321
 Si         9.6486462971        7.8009404064       11.7089030821
 Si         5.7482103071       12.1947341032       12.1078505245
 Si         7.6273819637       10.9947244592       11.6160344023
 Si         3.5226021283       15.3950616780       11.9230206222
 Si         5.5915359114       14.4025042672       11.5918577620
 Si         1.8897502145       18.9368016044       12.0003867502
 Si         3.7183235252       17.6808269846       11.5805916343
 Si        -0.2210911782       22.1457530606       11.9555946948
 Si         1.8260967909       21.1851901025       11.6176127091
 Si        -1.9417365068       25.6371656890       12.1116473416
 Si        -0.0620626907       24.4267358826       11.6645993127
 Si        15.4273117056        2.2473338033       12.1663097340
 Si        17.3292689891        1.0807824595       11.6469448542
 Si        13.3871345773        5.5483120233       12.1603079467
 Si        15.3690147027        4.4832755285       11.6233788028
 Si        11.5858553867        8.9140732993       12.2202697572
 Si        13.5087542865        7.7744100393       11.6659958934
 Si         9.5562057934       12.1872411742       12.0878168228
 Si        11.5468563960       11.1242762050       11.6570291151
 Si         7.5528436595       15.5629532203       11.8931087070
 Si         9.5276925212       14.4087734768       11.4906807568
 Si         5.6968399502       18.8103740669       11.8785042001
 Si         7.5853898209       17.7350736326       11.2551593076
 Si         3.8116799666       22.2554711275       12.0168774043
 Si         5.7069348089       21.0958326482       11.4597511011
 Si         1.8787472079       25.5682666523       12.0990745955
 Si         3.8370965911       24.5082615379       11.5808933341
 Si        19.2500243682        2.2358264527       12.1509647289
 Si        21.2052136592        1.1485222321       11.6368848013
 Si        17.3226003624        5.6043077827       12.1650039240
 Si        19.2672017613        4.4779313555       11.6278156834
 Si        15.4735651651        8.8598739213       12.1992123337
  P        17.3639737252        7.7890556710       11.5751127242
 Si        13.5007158718       12.1946517728       12.1988682378
 Si        15.4495333820       11.0979141147       11.6688800607
 Si        11.5182792067       15.5284490700       11.9750587343
 Si        13.4978012576       14.4153139403       11.6509196744
 Al         9.6144710910       18.9159371723       11.6564355398
 Si        11.6551026313       17.7307118320       11.3883125182
 Si         7.6576869432       22.2728902441       11.9242892545
 Si         9.6259102647       21.2771605720       11.3595877824
 Si         5.7504853098       25.6562800352       12.1053771617
 Si         7.6768202408       24.5427896486       11.5846946183
 Si        23.1646714362        2.2328452134       12.1360689480
 Si        25.1150880818        1.1388608256       11.6331202512
 Si        21.2363621783        5.5596545596       12.1467235748
 Si        23.1973085768        4.4688035655       11.6607825917
 Si        19.2577880976        8.8768019628       12.2024189791
 Si        21.2157476679        7.7959485376       11.6507607824
 Si        17.3664098874       12.2500895217       12.1769622874
 Si        19.2882428936       11.1170750298       11.6675685142
 Si        15.4183341050       15.5867603012       12.1423459299
 Si        17.3817774260       14.4885927534       11.7025485201
 Si        13.5113411412       18.9222646906       11.9813850110
 Si        15.4834638068       17.8287376645       11.6567339021
 Si        11.5661022639       22.3227288135       11.9373350091
 Si        13.5238135521       21.1859387963       11.5049644613
 Si         9.6459403112       25.6375195777       12.0752020215
 Si        11.6175999249       24.5765931073       11.5854022436
 Si        27.0612631254        2.2709962750       12.1303699663
 Si        29.0099444171        1.1738580518       11.6398713010
 Si        25.1505434010        5.5810394628       12.1687284790
 Si        27.1287027424        4.5178276927       11.6616602065
 Si        23.1563169953        8.9218082756       12.2009482092
 Si        25.1027254830        7.8118853634       11.6858586201
 Si        21.2303171137       12.2242499205       12.2279131761
 Si        23.1846361629       11.1597091051       11.7090284810
 Si        19.3310748071       15.5985966183       12.2125136648
 Si        21.2759609317       14.4726440549       11.7456129744
 Si        17.4072125502       18.9582105904       12.1600106179
 Si        19.3471679870       17.8350730129       11.7125349818
 Si        15.4506554971       22.3185327003       12.0553373463
 Si        17.4072017966       21.1902365107       11.6273687363
 Si        13.5542461398       25.6848706438       12.1018844194
 Si        15.5003049897       24.5847511372       11.5974865004
  H        -3.0747497965       21.0257843188       16.0524315499
  C        -2.0653172747       21.1778903773       15.6203484979
  H        -1.2002070125       21.3790343530       16.2821364584
  O        -1.8913974835       21.1161950180       14.4171669472
     132
 i =        2, E =      -531.3113922984
 Si         0.0601368163        2.2883449782       12.1744856356
 Si         2.0263261298        1.2613178263       11.6457790997
 Si        -1.7885523202        5.6339785385       12.1743282526
 Si         0.1695805282        4.5078232275       11.6583942059
 Si        -3.8403702600        8.9211006020       12.1914465683
 Si        -1.8611957743        7.8786692223       11.6905459705
 Si        -5.7595865234       12.2922014892       12.1966027737
 Si        -3.8565802699       11.1459843292       11.6739083594
 Si        -7.6515686199       15.5894957019       12.2188376292
 Si        -5.6768934177       14.5280223556       11.6908107695
 Si        -9.6120108364       18.9554960541       12.2124863558
 Si        -7.6873307503       17.8245035629       11.7142686634
 Si       -11.5480566876       22.3113781362       12.1436373265
 Si        -9.5875962255       21.1898834926       11.6994871494
 Si       -13.4522304316       25.7361382847       12.1116753598
 Si       -11.5547344648       24.5489020400       11.6364303118
 Si         3.9792492054        2.4058760141       12.1962829495
 Si         5.8056305951        1.1361218114       11.7067069523
 Si         2.1293471504        5.6356139327       12.1985623638
 Si         4.1934310836        4.6791303695       11.7106575352
 Si         0.0774257355        9.0401029520       12.1575478079
 Si         1.9459902349        7.8397889962       11.6435261756
 Si        -1.9105578699       12.2699183050       12.0883405345
 Si         0.0780832716       11.2831218595       11.6057996783
 Si        -3.7054704943       15.6505417635       12.1468475478
 Si        -1.7794742770       14.4884870870       11.6407701271
 Si        -5.7504915938       18.9456706119       12.1496659315
 Si        -3.7794973968       17.8908054201       11.6905011434
 Si        -7.6232085192       22.2991850404       12.1345571669
 Si        -5.6716778678       21.1771561713       11.6839676924
 Si        -9.6199049095       25.6424031697       12.1591869252
 Si        -7.6857138815       24.5327843297       11.6365225326
 Si         7.6462440080        2.3825647063       12.1736352351
 Si         9.5970027494        1.1892612413       11.6237155684
  N         5.7803749973        5.6045006240       11.8262611445
 Si         7.3775399742        4.6693278851       11.7022466499
 Si         3.9023496128        8.8567881359       12.1587331475
 Si         5.7705338271        7.4720652911       11.6466758221
 Si         1.9336536158       12.5934809139       12.0028197975
 Si         3.7997673937       11.1690183475       11.6226395911
 Si         0.3003137027       15.4357633806       11.9456186570
  C         1.9096832796       14.4695063667       11.8564515381
 Si        -1.8827553465       19.1167841661       11.9147063753
 Si        -0.0041766843       17.7541766679       11.7050098911
 Si        -3.6124059699       22.1454941031       11.9366853948
  B        -1.9033137415       21.1212149630       11.7223208515
 Si        -5.7686638807       25.6580544046       12.1228408161
 Si        -3.8362031246       24.4443908408       11.6730813234
 Si        11.5374397891        2.2395300091       12.1747179525
 Si        13.4867875280        1.1320205885       11.6649944356
 Si         9.4523876295        5.5944500664       12.2081245056
 Si        11.4132598938        4.4554353597       11.6491040291
 Si         7.6319710327        8.7501601893       12.2129238129
 Si         9.6486771868        7.8013624113       11.7092268802
 Si         5.7482861221       12.1948140073       12.1074401180
 Si         7.6275442821       10.9947332854       11.6158327412
 Si         3.5226837985       15.3946223067       11.9226044877
 Si         5.5917777090       14.4027140012       11.5920812170
 Si         1.8902190074       18.9367595706       12.0032231427
 Si         3.7178292855       17.6811875815       11.5806925227
 Si        -0.2189320012       22.1471851215       11.9302853301
 Si         1.8277841895       21.1849674563       11.6132143520
 Si        -1.9414757909       25.6370241072       12.1149908477
 Si        -0.0616194003       24.4274878758       11.6590893964
 Si        15.4275353481        2.2478603065       12.1664428088
 Si        17.3292243783        1.0806669924       11.6480160386
 Si        13.3871945381        5.5487546182       12.1612401569
 Si        15.3687489961        4.4833430747       11.6230062789
 Si        11.5859236204        8.9141622747       12.2200285883
 Si        13.5088547442        7.7739226136       11.6660040908
 Si         9.5561843788       12.1869801454       12.0873046415
 Si        11.5472392602       11.1244323853       11.6567666492
 Si         7.5530929342       15.5629417318       11.8933153450
 Si         9.5274778768       14.4088258915       11.4906075659
 Si         5.6972711407       18.8106450891       11.8786262650
 Si         7.5852837937       17.7351100172       11.2550689843
 Si         3.8119676926       22.2552000757       12.0169239569
 Si         5.7070187688       21.0957684272       11.4600420111
 Si         1.8781935987       25.5682715897       12.0989596199
 Si         3.8367367646       24.5082092088       11.5817406318
 Si        19.2499936657        2.2359013971       12.1506897022
 Si        21.2052963525        1.1485941303       11.6370464226
 Si        17.3225395278        5.6041858426       12.1643898879
 Si        19.2673540627        4.4778000674       11.6280022870
 Si        15.4736658663        8.8600602623       12.1993288018
  P        17.3640332368        7.7891632504       11.5750493670
 Si        13.5004659039       12.1946879170       12.1998870692
 Si        15.4493155110       11.0979750229       11.6687186353
 Si        11.5183101218       15.5283953590       11.9749374681
 Si        13.4976836714       14.4151416732       11.6506169098
 Al         9.6143885588       18.9159296574       11.6562775944
 Si        11.6551037181       17.7307814192       11.3884561136
 Si         7.6576571445       22.2727822032       11.9239926643
 Si         9.6258824072       21.2771077151       11.3597462997
 Si         5.7504676801       25.6563746468       12.1049806463
 Si         7.6768040688       24.5426287004       11.5849609544
 Si        23.1648287467        2.2329202538       12.1360926230
 Si        25.1152270623        1.1389258437       11.6330873842
 Si        21.2364447644        5.5598502626       12.1465051436
 Si        23.1974796076        4.4688934975       11.6608244433
 Si        19.2577554232        8.8767073616       12.2025539039
 Si        21.2158757155        7.7959225637       11.6503947016
 Si        17.3662795926       12.2500368505       12.1767252788
 Si        19.2882279424       11.1169659359       11.6677930959
 Si        15.4179860570       15.5866168743       12.1423460238
 Si        17.3820276738       14.4889108413       11.7025085555
 Si        13.5112670617       18.9225556772       11.9815017655
 Si        15.4832357200       17.8284845470       11.6566461606
 Si        11.5661065285       22.3226591530       11.9372728006
 Si        13.5238764464       21.1860083322       11.5047891040
 Si         9.6459633063       25.6375379745       12.0749492151
 Si        11.6176156821       24.5764736829       11.5854845196
 Si        27.0614484258        2.2709864315       12.1300851319
 Si        29.0100403614        1.1737962416       11.6395956686
 Si        25.1507387501        5.5810119723       12.1687340747
 Si        27.1289192878        4.5177913371       11.6617097516
 Si        23.1562133123        8.9216543755       12.2007181170
 Si        25.1027565392        7.8118842352       11.6859370548
 Si        21.2304819636       12.2244670150       12.2276929079
 Si        23.1848463187       11.1597994380       11.7092284802
 Si        19.3305163541       15.5987032629       12.2132695897
 Si        21.2760073770       14.4729280065       11.7455478986
 Si        17.4071601754       18.9580253284       12.1594451074
 Si        19.3471678783       17.8347160115       11.7122490761
 Si        15.4507363066       22.3186909870       12.0550392470
 Si        17.4072874984       21.1903137844       11.6276409396
 Si        13.5541857502       25.6850564401       12.1018689403
 Si        15.5002245895       24.5848163717       11.5974693804
  H        -3.0751535311       21.0327087633       16.0891318430
  C        -2.0613791906       21.1761715645       15.6750325861
  H        -1.2101351930       21.3849163525       16.3416493918
  O        -1.8801952184       21.1080290931       14.4718100654
     132
 i =        3, E =      -531.3131957752
 Si         0.0602203451        2.2883601682       12.1739755118
 Si         2.0264959707        1.2610462065       11.6462540584
 Si        -1.7884735739        5.6341116409       12.1742204707
 Si         0.1697135597        4.5079727083       11.6581544510
 Si        -3.8402745238        8.9212599391       12.1913035393
 Si        -1.8612193553        7.8788280497       11.6905019227
 Si        -5.7595860171       12.2918251041       12.1965997709
 Si        -3.8565683733       11.1460524648       11.6740869557
 Si        -7.6518640390       15.5897075951       12.2187356017
 Si        -5.6771885486       14.5276341014       11.6926601176
 Si        -9.6120689302       18.9549934032       12.2126597468
 Si        -7.6864977686       17.8249959966       11.7145008286
 Si       -11.5485430179       22.3115433534       12.1433206045
 Si        -9.5885810920       21.1896730840       11.7002394231
 Si       -13.4520871244       25.7358068642       12.1114018219
 Si       -11.5545622915       24.5489031477       11.6356741460
 Si         3.9790760082        2.4058781832       12.1966350583
 Si         5.8052096205        1.1361423258       11.7065024233
 Si         2.1293805922        5.6357030870       12.1992083853
 Si         4.1932164832        4.6788913424       11.7099754223
 Si         0.0773935528        9.0401491377       12.1576332352
 Si         1.9456774729        7.8396915072       11.6435833522
 Si        -1.9105579263       12.2698346217       12.0882376271
 Si         0.0779070861       11.2830786493       11.6061366501
 Si        -3.7060033760       15.6501412716       12.1464758321
 Si        -1.7796590485       14.4882555006       11.6420598817
 Si        -5.7488353340       18.9464198609       12.1538803237
 Si        -3.7815604440       17.8877381229       11.6818100367
 Si        -7.6246375445       22.2991360797       12.1345632519
 Si        -5.6759223176       21.1767907279       11.6765031291
 Si        -9.6200229341       25.6425009541       12.1585545919
 Si        -7.6857037410       24.5330993624       11.6376607181
 Si         7.6456567495        2.3824139427       12.1732644094
 Si         9.5968345590        1.1896333900       11.6247299663
  N         5.7804811119        5.6041256244       11.8276779400
 Si         7.3775141801        4.6693075867       11.7040034361
 Si         3.9022183480        8.8566524619       12.1585653678
 Si         5.7705909768        7.4716456039       11.6473224077
 Si         1.9335343363       12.5929649380       12.0033871779
 Si         3.7996946625       11.1689773454       11.6235424383
 Si         0.3006324626       15.4353065554       11.9433058542
  C         1.9102105226       14.4689374445       11.8571763020
 Si        -1.8822437826       19.1205904057       11.8609950718
 Si        -0.0025366832       17.7520956484       11.6950278352
 Si        -3.6088435073       22.1433182008       11.8866229522
  B        -1.9036561522       21.1221293786       11.6280981644
 Si        -5.7684398102       25.6582784790       12.1226346494
 Si        -3.8376130819       24.4473661383       11.6621213665
 Si        11.5376685554        2.2395169129       12.1749329246
 Si        13.4867337626        1.1307304892       11.6655175967
 Si         9.4525249253        5.5946326764       12.2069003047
 Si        11.4135629769        4.4556138565       11.6491027178
 Si         7.6318115072        8.7501657971       12.2137015487
 Si         9.6485551985        7.8017901690       11.7097309844
 Si         5.7484041826       12.1948777768       12.1068657419
 Si         7.6274275197       10.9945310727       11.6155340725
 Si         3.5227465189       15.3945512309       11.9223734787
 Si         5.5919496428       14.4028267886       11.5922762749
 Si         1.8892424132       18.9377050248       12.0056651363
 Si         3.7172944183       17.6815354148       11.5811510367
 Si        -0.2240638609       22.1450592476       11.8871092176
 Si         1.8303912677       21.1851563867       11.6056053268
 Si        -1.9412982692       25.6343888857       12.1175240119
 Si        -0.0602905897       24.4292269201       11.6496477752
 Si        15.4271242873        2.2480045881       12.1665968284
 Si        17.3292884912        1.0807944417       11.6497022302
 Si        13.3872505242        5.5487949580       12.1623148869
 Si        15.3684399634        4.4835410473       11.6224833043
 Si        11.5861243751        8.9141867301       12.2197194811
 Si        13.5089979645        7.7738420993       11.6660953988
 Si         9.5562315455       12.1868314767       12.0867297981
 Si        11.5475048397       11.1244711423       11.6563514070
 Si         7.5532665525       15.5630963896       11.8935871211
 Si         9.5273800710       14.4088436224       11.4904767097
 Si         5.6973492539       18.8106185788       11.8789943991
 Si         7.5853245064       17.7350846548       11.2547836648
 Si         3.8125061125       22.2549554936       12.0177834724
 Si         5.7075183978       21.0958077498       11.4605970062
 Si         1.8776402186       25.5683591875       12.0993619878
 Si         3.8364364348       24.5082548827       11.5826563013
 Si        19.2502839781        2.2360700794       12.1505021455
 Si        21.2055611671        1.1487447029       11.6372554270
 Si        17.3224770804        5.6041230428       12.1636124019
 Si        19.2674750703        4.4778726644       11.6281742080
 Si        15.4737462140        8.8601098612       12.1993912415
  P        17.3640532244        7.7892716857       11.5750115170
 Si        13.5004359237       12.1947681808       12.2011749419
 Si        15.4490570696       11.0980942345       11.6685783295
 Si        11.5182355015       15.5284417518       11.9747921022
 Si        13.4974479764       14.4149271395       11.6502004257
 Al         9.6143197181       18.9158746708       11.6560639180
 Si        11.6550656139       17.7309061111       11.3886382021
 Si         7.6579940334       22.2727832502       11.9237587190
 Si         9.6260112173       21.2770045031       11.3598878875
 Si         5.7504841937       25.6564683137       12.1042583274
 Si         7.6768521276       24.5425954485       11.5852814340
 Si        23.1650661961        2.2330272123       12.1360919526
 Si        25.1152750071        1.1389313754       11.6330658143
 Si        21.2366446407        5.5599165412       12.1462344183
 Si        23.1977152552        4.4689015296       11.6609102380
 Si        19.2578054587        8.8766049656       12.2026533153
 Si        21.2158272711        7.7959861697       11.6497952286
 Si        17.3662179554       12.2500433351       12.1763885832
 Si        19.2882743894       11.1169596966       11.6681720749
 Si        15.4177591452       15.5865208008       12.1423347889
 Si        17.3819222199       14.4890171460       11.7025048221
 Si        13.5112356977       18.9227307421       11.9816373091
 Si        15.4829197847       17.8284004394       11.6565472160
 Si        11.5661406806       22.3226007532       11.9371869646
 Si        13.5239285243       21.1861202928       11.5045360942
 Si         9.6460019167       25.6375704588       12.0745972486
 Si        11.6175624269       24.5764238603       11.5855824167
 Si        27.0615980742        2.2708696710       12.1297335511
 Si        29.0101662543        1.1737658935       11.6391141479
 Si        25.1509253999        5.5810509416       12.1687299048
 Si        27.1290451115        4.5177413014       11.6616006088
 Si        23.1562626544        8.9215819800       12.2004269328
 Si        25.1029400134        7.8119164981       11.6860406948
 Si        21.2305704262       12.2246445460       12.2273690145
 Si        23.1848136690       11.1598082168       11.7094578308
 Si        19.3303684254       15.5987678210       12.2142497242
 Si        21.2756938808       14.4731286968       11.7453402921
 Si        17.4070069328       18.9578339915       12.1586130779
 Si        19.3469577155       17.8345053697       11.7117412747
 Si        15.4507871933       22.3187804837       12.0546329088
 Si        17.4071712208       21.1902634510       11.6279350424
 Si        13.5541130382       25.6850712225       12.1018468316
 Si        15.5002127859       24.5849545808       11.5974369355
  H        -3.0733812588       21.0404797071       16.1543965582
  C        -2.0620833715       21.1826576914       15.7375931807
  H        -1.2288375694       21.3894850017       16.4270134207
  O        -1.8563201882       21.0933048775       14.5372668254
     132
 i =        4, E =      -531.3143612442
 Si         0.0602756554        2.2883855990       12.1734767543
 Si         2.0265766150        1.2608587362       11.6465573262
 Si        -1.7883347610        5.6342836576       12.1741214952
 Si         0.1699499803        4.5080831007       11.6578961558
 Si        -3.8402130101        8.9212576759       12.1912676280
 Si        -1.8612407224        7.8788692632       11.6904608266
 Si        -5.7595466830       12.2910584010       12.1971120725
 Si        -3.8568044226       11.1458076166       11.6740776565
 Si        -7.6524088797       15.5906292790       12.2187509365
 Si        -5.6777574427       14.5274313638       11.6948487477
 Si        -9.6117906317       18.9538279369       12.2128908651
 Si        -7.6852512329       17.8256655978       11.7163825807
 Si       -11.5493518609       22.3116251381       12.1434077047
 Si        -9.5894846024       21.1894442842       11.7013555031
 Si       -13.4520592249       25.7356214452       12.1111525985
 Si       -11.5546604687       24.5490750039       11.6347022757
 Si         3.9787757363        2.4058765968       12.1969785598
 Si         5.8047436283        1.1364494588       11.7061083610
 Si         2.1293167629        5.6358329287       12.1997721999
 Si         4.1930671369        4.6786803553       11.7099796000
 Si         0.0773785118        9.0400303381       12.1577633398
 Si         1.9453311075        7.8395280961       11.6437846119
 Si        -1.9104197969       12.2697353573       12.0881733249
 Si         0.0778867129       11.2828644089       11.6064540792
 Si        -3.7060921148       15.6507105832       12.1469678670
 Si        -1.7799645928       14.4874552921       11.6428498290
 Si        -5.7457261321       18.9476796414       12.1547238125
 Si        -3.7842645538       17.8854723936       11.6692762655
 Si        -7.6250392038       22.2991663839       12.1349837408
 Si        -5.6789532748       21.1758205324       11.6655202290
 Si        -9.6201916501       25.6424557614       12.1579651868
 Si        -7.6861710396       24.5334802681       11.6377988232
 Si         7.6448647271        2.3822777873       12.1733794763
 Si         9.5968615543        1.1902034462       11.6259163956
  N         5.7805992616        5.6038678721       11.8283055797
 Si         7.3775934066        4.6694868512       11.7060731343
 Si         3.9022166454        8.8564110145       12.1585733664
 Si         5.7704430571        7.4713629572       11.6483323820
 Si         1.9336443407       12.5923821063       12.0043001501
 Si         3.7997502310       11.1687053189       11.6244397078
 Si         0.3008908361       15.4350958362       11.9391804124
  C         1.9107700659       14.4683109916       11.8578801268
 Si        -1.8826474222       19.1306645810       11.7993103097
 Si        -0.0004734666       17.7515010230       11.6801725313
 Si        -3.6004839517       22.1381478374       11.8292969804
  B        -1.9036930202       21.1222295604       11.5698164186
 Si        -5.7679688883       25.6577827137       12.1221625766
 Si        -3.8378836475       24.4506033931       11.6471485860
 Si        11.5385184515        2.2392728080       12.1751365912
 Si        13.4867119301        1.1293375822       11.6673786844
 Si         9.4526768583        5.5947694729       12.2059784308
 Si        11.4140093600        4.4557311447       11.6489866300
 Si         7.6318619078        8.7501916744       12.2144310468
 Si         9.6483856981        7.8021377361       11.7101974608
 Si         5.7485417602       12.1949297971       12.1064030941
 Si         7.6272194200       10.9942135701       11.6152129536
 Si         3.5228831777       15.3948360095       11.9226064389
 Si         5.5920275610       14.4029879394       11.5922909885
 Si         1.8873605347       18.9391803338       12.0051212385
 Si         3.7165168854       17.6820499918       11.5826601721
 Si        -0.2336304130       22.1403388103       11.8336820948
 Si         1.8324904650       21.1846797265       11.5954419026