     132
 i =        1, E =      -531.3073161710
 Si         0.0603409069        2.2881594153       12.1749325297
 Si         2.0263228698        1.2612559418       11.6452998233
 Si        -1.7885961208        5.6342275003       12.1744995829
 Si         0.1697140678        4.5074935215       11.6584715338
 Si        -3.8406498717        8.9209394770       12.1911910631
 Si        -1.8614130024        7.8787232907       11.6907739084
 Si        -5.7594475459       12.2919914006       12.1964561474
 Si        -3.8574673277       11.1457454066       11.6740415659
 Si        -7.6507806470       15.5899211856       12.2186027828
 Si        -5.6770343812       14.5276184660       11.6896685914
 Si        -9.6114085014       18.9553417369       12.2123820129
 Si        -7.6890424646       17.8230420870       11.7146983938
 Si       -11.5480742300       22.3111096261       12.1439518782
 Si        -9.5871356078       21.1908989465       11.6990361335
 Si       -13.4523826305       25.7365557932       12.1118530599
 Si       -11.5551612234       24.5494440401       11.6370968459
 Si         3.9791937839        2.4056541212       12.1957484990
 Si         5.8059380708        1.1363655914       11.7067932755
 Si         2.1292615692        5.6359807742       12.1979216698
 Si         4.1938020442        4.6791103218       11.7120567279
 Si         0.0776475102        9.0400412477       12.1573086342
 Si         1.9458580668        7.8398111692       11.6437894666
 Si        -1.9102118901       12.2703508331       12.0881603771
 Si         0.0781511624       11.2830524852       11.6056975774
 Si        -3.7054412389       15.6501477778       12.1482898461
 Si        -1.7796617852       14.4878009021       11.6392647612
 Si        -5.7488639872       18.9462818435       12.1435146800
 Si        -3.7788122514       17.8907602785       11.6963633231
 Si        -7.6225374710       22.2995434030       12.1353095011
 Si        -5.6688655825       21.1788345707       11.6887788660
 Si        -9.6196507264       25.6417773141       12.1594894480
 Si        -7.6864052290       24.5325803690       11.6348242326
 Si         7.6462194085        2.3827030768       12.1743041638
 Si         9.5971480408        1.1894463489       11.6229127126
  N         5.7804145846        5.6047126576       11.8244167864
 Si         7.3782386670        4.6699265923       11.7011328286
 Si         3.9027725619        8.8571197124       12.1589490478
 Si         5.7700215218        7.4723981816       11.6467228847
 Si         1.9338319830       12.5934111027       12.0023821628
 Si         3.7997725324       11.1689675131       11.6218730156
 Si         0.3005980125       15.4355879265       11.9472468729
  C         1.9096295213       14.4693320903       11.8557858172
 Si        -1.8826588141       19.1286314839       11.9637939294
 Si        -0.0050934226       17.7548830221       11.7112733260
 Si        -3.6029739416       22.1404346915       11.9831115311
  B        -1.9017674297       21.1191282042       11.8730621264
 Si        -5.7696533195       25.6580087983       12.1231756264
 Si        -3.8358056091       24.4438915516       11.6814300549
 Si        11.5380145970        2.2390239079       12.1740311603
 Si        13.4866753157        1.1342892980       11.6655197756
 Si         9.4522130704        5.5942450779       12.2087804711
 Si        11.4122707190        4.4553668516       11.6497749234
 Si         7.6329151022        8.7499003489       12.2116376711
 Si         9.6485390974        7.8006390606       11.7096830440
 Si         5.7480819694       12.1947549656       12.1079769858
 Si         7.6274280024       10.9947397339       11.6163527065
 Si         3.5222890770       15.3956942566       11.9233241081
 Si         5.5913803878       14.4025104550       11.5917275776
 Si         1.8887715283       18.9366767949       11.9990197868
 Si         3.7191120948       17.6803526084       11.5803820880
 Si        -0.2254923123       22.1438833154       11.9658292397
 Si         1.8256546352       21.1858317352       11.6193207194
 Si        -1.9419401998       25.6361903713       12.1096423151
 Si        -0.0612818418       24.4269023939       11.6668279748
 Si        15.4266538199        2.2457830335       12.1658261876
 Si        17.3297455869        1.0806682101       11.6475287474
 Si        13.3866132298        5.5476520937       12.1612459074
 Si        15.3676427598        4.4817949364       11.6225994991
 Si        11.5846164733        8.9145473209       12.2202775032
 Si        13.5060327095        7.7749423543       11.6645466676
 Si         9.5565049474       12.1873940968       12.0878767023
 Si        11.5468193993       11.1244699448       11.6575437884
 Si         7.5527208230       15.5630943977       11.8930458376
 Si         9.5279855013       14.4084848959       11.4905637005
 Si         5.6963220684       18.8103246523       11.8784869728
 Si         7.5854437821       17.7352058602       11.2552803201
 Si         3.8121710332       22.2555979653       12.0169746129
 Si         5.7071720297       21.0958057414       11.4595959814
 Si         1.8791502924       25.5689800141       12.0986858577
 Si         3.8371639346       24.5085174604       11.5806895438
 Si        19.2507617855        2.2345640646       12.1506464333
 Si        21.2052550996        1.1485272859       11.6375760851
 Si        17.3233326164        5.6189081316       12.1420194173
 Si        19.2684127519        4.4765810856       11.6261445104
 Si        15.4850319454        8.8525779854       12.1717404893
  P        17.3633127693        7.7911507369       11.4241340541
 Si        13.4995721317       12.1958179634       12.1990296925
 Si        15.4487306470       11.0993313073       11.6662296047
 Si        11.5183105418       15.5282591724       11.9748542128
 Si        13.4975972441       14.4153917700       11.6518946204
 Al         9.6144748095       18.9161492531       11.6564829017
 Si        11.6548685799       17.7306689169       11.3882824179
 Si         7.6578594435       22.2727006949       11.9242971530
 Si         9.6259421016       21.2771180376       11.3595374944
 Si         5.7504735062       25.6565256456       12.1051328529
 Si         7.6766513785       24.5427084104       11.5847886962
 Si        23.1644826426        2.2329754524       12.1356380547
 Si        25.1146383418        1.1390652701       11.6331809776
 Si        21.2367020562        5.5595922273       12.1485176780
 Si        23.1978220716        4.4682206884       11.6613689062
 Si        19.2441089346        8.8685799376       12.1809723931
 Si        21.2182747943        7.7963461107       11.6483478921
 Si        17.3665510659       12.2501188908       12.1793342210
 Si        19.2893658191       11.1185041027       11.6643258093
 Si        15.4186270717       15.5866023490       12.1417932519
 Si        17.3814008836       14.4890936805       11.7031919766
 Si        13.5114666967       18.9221109025       11.9812777794
 Si        15.4836069953       17.8284403421       11.6568670549
 Si        11.5659289831       22.3226574413       11.9373132070
 Si        13.5237061508       21.1861670569       11.5050329368
 Si         9.6460122051       25.6375713944       12.0752487194
 Si        11.6176485050       24.5765397323       11.5853254603
 Si        27.0612053518        2.2710278983       12.1304518600
 Si        29.0099966863        1.1738517414       11.6398500762
 Si        25.1502634160        5.5811948406       12.1680941599
 Si        27.1283053772        4.5179156891       11.6616750361
 Si        23.1576340624        8.9227995757       12.2014083473
 Si        25.1029260697        7.8119385081       11.6866495447
 Si        21.2318678980       12.2248592476       12.2288907242
 Si        23.1846736204       11.1599663447       11.7091668187
 Si        19.3314548400       15.5983092927       12.2115922302
 Si        21.2759125533       14.4724977545       11.7464918850
 Si        17.4071813710       18.9582192433       12.1602373221
 Si        19.3469521223       17.8349546193       11.7127983114
 Si        15.4506981857       22.3186892196       12.0554104169
 Si        17.4071580000       21.1902809753       11.6271784421
 Si        13.5543898779       25.6846279610       12.1018696926
 Si        15.5004760556       24.5849109092       11.5974846795
  H        16.1710657586        7.6935075164       15.7624698665
  C        17.1966227568        7.8532839227       15.3741086396
  H        18.0852181840        8.0534282175       16.0006325151
  O        17.3763144736        7.7740477386       14.1716429758
     132
 i =        2, E =      -531.3146755617
 Si         0.0602016914        2.2882788917       12.1746763855
 Si         2.0263334305        1.2615239945       11.6452576749
 Si        -1.7885780823        5.6343144995       12.1742103697
 Si         0.1696336838        4.5076835822       11.6586365267
 Si        -3.8399142679        8.9209757364       12.1908203731
 Si        -1.8612265598        7.8785658179       11.6910256266
 Si        -5.7590878923       12.2923275803       12.1963561652
 Si        -3.8573123037       11.1460789829       11.6743334807
 Si        -7.6502063472       15.5905238120       12.2179689272
 Si        -5.6765683157       14.5276646933       11.6898301407
 Si        -9.6112390129       18.9554343292       12.2120112220
 Si        -7.6889704187       17.8232689362       11.7149504101
 Si       -11.5481082699       22.3110901034       12.1436900647
 Si        -9.5872174567       21.1906547015       11.6991507428
 Si       -13.4523640919       25.7363614844       12.1117502766
 Si       -11.5546975520       24.5492084531       11.6368003456
 Si         3.9792651235        2.4057655482       12.1957796909
 Si         5.8062189112        1.1363797303       11.7069238678
 Si         2.1291256904        5.6359720255       12.1979447098
 Si         4.1936887292        4.6790711536       11.7119699381
 Si         0.0775461987        9.0401137851       12.1571634567
 Si         1.9457411632        7.8399498455       11.6440082450
 Si        -1.9101998540       12.2706192554       12.0881649477
 Si         0.0779549514       11.2831498484       11.6058595204
 Si        -3.7052041506       15.6501199736       12.1481828719
 Si        -1.7799586900       14.4878050922       11.6394564400
 Si        -5.7487893141       18.9461844974       12.1431784302
 Si        -3.7787543268       17.8904607021       11.6966044567
 Si        -7.6226548528       22.2994788319       12.1351872485
 Si        -5.6687706866       21.1787331835       11.6888279819
 Si        -9.6194526959       25.6418846731       12.1593614055
 Si        -7.6861903477       24.5326787695       11.6348119599
 Si         7.6461999865        2.3825099621       12.1736907566
 Si         9.5967480141        1.1889365016       11.6232316579
  N         5.7802648691        5.6045642395       11.8258681947
 Si         7.3777033119        4.6694707148       11.7015907167
 Si         3.9027788828        8.8571239455       12.1589691688
 Si         5.7697957738        7.4721112381       11.6471689416
 Si         1.9337239531       12.5935658251       12.0022821287
 Si         3.7998754593       11.1689771870       11.6220996156
 Si         0.3002645899       15.4354166526       11.9474155712
  C         1.9095871449       14.4695953884       11.8558093652
 Si        -1.8828487733       19.1287071204       11.9637796110
 Si        -0.0049707187       17.7549157817       11.7112688757
 Si        -3.6028116785       22.1404376374       11.9830418784
  B        -1.9016737296       21.1192466173       11.8734139786
 Si        -5.7697134703       25.6580490846       12.1230410096
 Si        -3.8360889083       24.4437447675       11.6816220743
 Si        11.5373715796        2.2381469495       12.1738877095
 Si        13.4867294255        1.1335056470       11.6663696836
 Si         9.4512258929        5.5941399942       12.2083876219
 Si        11.4132398586        4.4557552043       11.6515668783
 Si         7.6321143604        8.7499069103       12.2110571758
 Si         9.6480971482        7.8012740643       11.7111390022
 Si         5.7480971759       12.1950637114       12.1077598639
 Si         7.6272562236       10.9949122255       11.6167827764
 Si         3.5225475928       15.3956059146       11.9234409215
 Si         5.5916825033       14.4026576736       11.5919094301
 Si         1.8888654284       18.9368016920       11.9988857645
 Si         3.7191289648       17.6801887924       11.5800608871
 Si        -0.2255241162       22.1439360256       11.9656143524
 Si         1.8255527815       21.1860482191       11.6198940202
 Si        -1.9424016704       25.6354750353       12.1091257136
 Si        -0.0612465024       24.4266897429       11.6669684091
 Si        15.4254930272        2.2468812662       12.1657568098
 Si        17.3298666113        1.0810068754       11.6484458474
 Si        13.3883324346        5.5485426383       12.1589475983
 Si        15.3732118186        4.4825867716       11.6237961060
 Si        11.5850081709        8.9141826936       12.2206266478
 Si        13.5085494318        7.7791216548       11.6647292009
 Si         9.5559538724       12.1878808014       12.0874521526
 Si        11.5471847054       11.1250679772       11.6578179126
 Si         7.5527022176       15.5629768028       11.8928833419
 Si         9.5276978577       14.4085014335       11.4904545790
 Si         5.6963469133       18.8104035370       11.8785378152
 Si         7.5853669969       17.7350056627       11.2555358685
 Si         3.8120112487       22.2554689427       12.0167074061
 Si         5.7070649833       21.0959977970       11.4595198875
 Si         1.8792062814       25.5684301158       12.0979842806
 Si         3.8373359018       24.5081918160       11.5809480123
 Si        19.2517982516        2.2357728639       12.1509373960
 Si        21.2053186944        1.1477463871       11.6385099096
 Si        17.3232739569        5.6509950900       12.0975529672
 Si        19.2633010509        4.4778809351       11.6260620699
 Si        15.5120990036        8.8363858861       12.1235367626
  P        17.3642348716        7.7929563344       11.2524310795
 Si        13.5004593870       12.1959718246       12.2004690085
 Si        15.4466711998       11.0943803615       11.6652624870
 Si        11.5176164045       15.5289385186       11.9742580541
 Si        13.4964376801       14.4154166105       11.6531432005
 Al         9.6145314033       18.9160838153       11.6564238533
 Si        11.6549082312       17.7309469046       11.3886077537
 Si         7.6576984240       22.2726394570       11.9241210051
 Si         9.6259696488       21.2771833500       11.3594445885
 Si         5.7508732217       25.6557327126       12.1046581211
 Si         7.6769479286       24.5424875384       11.5852814625
 Si        23.1651697416        2.2324695865       12.1357077046
 Si        25.1150683618        1.1385831380       11.6332715889
 Si        21.2351452936        5.5616461888       12.1466773104
 Si        23.1967118084        4.4686716496       11.6629021071
 Si        19.2163329291        8.8526908710       12.1391307930
 Si        21.2147286873        7.8014707759       11.6476441750
 Si        17.3673960706       12.2469579531       12.1780106192
 Si        19.2918457139       11.1123237742       11.6631806614
 Si        15.4183123320       15.5872610857       12.1415769048
 Si        17.3812446818       14.4873889647       11.7049711959
 Si        13.5113617213       18.9223324707       11.9808896487
 Si        15.4832044558       17.8287997576       11.6570367261
 Si        11.5659380098       22.3226355267       11.9371907167
 Si        13.5238484603       21.1860586831       11.5052211978
 Si         9.6459968654       25.6375071804       12.0748788033
 Si        11.6174809579       24.5766825567       11.5854157435
 Si        27.0611826448        2.2709678559       12.1298301853
 Si        29.0099347710        1.1738926791       11.6399068532
 Si        25.1510753087        5.5809947483       12.1677326717
 Si        27.1289385171        4.5178713465       11.6618664054
 Si        23.1566138125        8.9222106579       12.2021645925
 Si        25.1032577728        7.8127554361       11.6878064868
 Si        21.2306420789       12.2244716914       12.2303814409
 Si        23.1843185582       11.1602915832       11.7090123469
 Si        19.3317224429       15.5989937051       12.2113634417
 Si        21.2769772669       14.4719717596       11.7479583538
 Si        17.4070785125       18.9581994813       12.1596382567
 Si        19.3471836055       17.8353869834       11.7131136720
 Si        15.4507752420       22.3185752839       12.0552348868
 Si        17.4071746650       21.1901510333       11.6274206132
 Si        13.5541077324       25.6847934091       12.1018300722
 Si        15.5002677493       24.5848451601       11.5973163603
  H        16.1871073408        7.7125041703       15.8368472827
  C        17.2057235304        7.8429024932       15.4398411799
  H        18.0545290251        8.0635897907       16.0973670728
  O        17.3822056253        7.7522455805       14.2332244628
     132
 i =        3, E =      -531.3174398821
 Si         0.0601039068        2.2884354632       12.1744041149
 Si         2.0263718072        1.2620022548       11.6453062420
 Si        -1.7882960126        5.6342237692       12.1742665774
 Si         0.1697635158        4.5078212245       11.6588448541
 Si        -3.8395504892        8.9213762598       12.1909915793
 Si        -1.8608435584        7.8782895975       11.6908529322
 Si        -5.7590135894       12.2925298433       12.1959830913
 Si        -3.8568794783       11.1467300215       11.6743957312
 Si        -7.6495300125       15.5907306551       12.2177151567
 Si        -5.6754907062       14.5277461530       11.6897652933
 Si        -9.6111878934       18.9558464554       12.2119720702
 Si        -7.6889275864       17.8237189369       11.7147574671
 Si       -11.5479587842       22.3111390924       12.1435014732
 Si        -9.5871837141       21.1905353743       11.6991745250
 Si       -13.4525127794       25.7360829751       12.1110401196
 Si       -11.5540666483       24.5487971042       11.6364682361
 Si         3.9791745795        2.4060981244       12.1959534875
 Si         5.8062523355        1.1362834911       11.7071716360
 Si         2.1289256350        5.6359497872       12.1979111957
 Si         4.1933096592        4.6787867099       11.7120726601
 Si         0.0776603598        9.0404379242       12.1571399942
 Si         1.9456963465        7.8400463680       11.6441147850
 Si        -1.9099986395       12.2709196238       12.0882958492
 Si         0.0778871697       11.2834185616       11.6060252226
 Si        -3.7047846590       15.6503716848       12.1482225877
 Si        -1.7799627181       14.4878828803       11.6396600105
 Si        -5.7483920194       18.9461298160       12.1429296485
 Si        -3.7785265859       17.8902382638       11.6968336763
 Si        -7.6227452882       22.2993944207       12.1348319221
 Si        -5.6686356134       21.1785923796       11.6888749587
 Si        -9.6192177543       25.6418839774       12.1593009085
 Si        -7.6861507183       24.5326744528       11.6348007467
 Si         7.6457201771        2.3820164317       12.1729135626
 Si         9.5966391401        1.1883964816       11.6232941169
  N         5.7798691991        5.6041947601       11.8267692389
 Si         7.3772091349        4.6694263227       11.7024231383
 Si         3.9026153954        8.8573866363       12.1592776452
 Si         5.7692317225        7.4716301888       11.6474928478
 Si         1.9336990517       12.5935491493       12.0021186897
 Si         3.7998323942       11.1691438380       11.6223632321
 Si         0.3002133629       15.4354185511       11.9475849960
  C         1.9095328959       14.4695531068       11.8558614114
 Si        -1.8830686859       19.1288308151       11.9637446172
 Si        -0.0049807068       17.7549187612       11.7112792608
 Si        -3.6026750329       22.1401138956       11.9831216632
  B        -1.9014949705       21.1192889461       11.8737088871
 Si        -5.7701400114       25.6579231593       12.1232117578
 Si        -3.8365731422       24.4435162642       11.6813557520
 Si        11.5365087913        2.2376025690       12.1742662402
 Si        13.4870451804        1.1341881050       11.6673890996
 Si         9.4504645805        5.5937939737       12.2081580090
 Si        11.4163507532        4.4571998119       11.6550170894
 Si         7.6313676118        8.7503496040       12.2110657866
 Si         9.6489604834        7.8015496743       11.7131038911
 Si         5.7478740136       12.1953389128       12.1076498702
 Si         7.6266848243       10.9955006932       11.6168615317
 Si         3.5226092236       15.3954621531       11.9235958657
 Si         5.5917324329       14.4027430510       11.5920439656
 Si         1.8889127597       18.9369464375       11.9987089462
 Si         3.7191609718       17.6801337144       11.5797109627
 Si        -0.2254591882       22.1437671561       11.9655102518
 Si         1.8254387051       21.1862031540       11.6205541853
 Si        -1.9424147299       25.6346903317       12.1090220165
 Si        -0.0606885272       24.4259260483       11.6668873123
 Si        15.4268192564        2.2504417153       12.1667496524
 Si        17.3300256407        1.0819940562       11.6500601205
 Si        13.3919588694        5.5508025536       12.1494111279
 Si        15.3804016757        4.4868575174       11.6245303129
 Si        11.5888474829        8.9143156934       12.2214685436
 Si        13.5153230878        7.7825906083       11.6645160356
 Si         9.5556102274       12.1881731614       12.0867009487
 Si        11.5479371369       11.1254908792       11.6588472100
 Si         7.5523683243       15.5630736189       11.8928124916
 Si         9.5266322197       14.4085933967       11.4901243619
 Si         5.6965034861       18.8104277492       11.8784137011
 Si         7.5852379546       17.7348487283       11.2558577996
 Si         3.8117666964       22.2551417762       12.0165170247
 Si         5.7069678422       21.0961151542       11.4594940379
 Si         1.8791188637       25.5681912676       12.0968701250
 Si         3.8371017222       24.5074365693       11.5809466309
 Si        19.2504354585        2.2399976322       12.1520691211
 Si        21.2050827158        1.1484542175       11.6397012781
 Si        17.3230524107        5.6822984437       12.0415627031
 Si        19.2570808429        4.4824730110       11.6260546937
 Si        15.5384643296        8.8210914675       12.0654536731
  P        17.3657999919        7.7932082512       11.1502537837
 Si        13.5031797564       12.1927157923       12.2023773029
 Si        15.4469081056       11.0867537750       11.6651765284
 Si        11.5168727939       15.5294407026       11.9739968892
 Si        13.4965468808       14.4144699415       11.6548191336
 Al         9.6141900570       18.9161095634       11.6562995468
 Si        11.6550307625       17.7314227765       11.3886000354
 Si         7.6574432249       22.2723355252       11.9240476150
 Si         9.6261020200       21.2772826782       11.3594282578
 Si         5.7508864368       25.6549468105       12.1047583901
 Si         7.6774546436       24.5422046725       11.5852870471
 Si        23.1657408762        2.2324482680       12.1361056854
 Si        25.1154810737        1.1381678106       11.6329990536
 Si        21.2315140448        5.5648233005       12.1374561051
 Si        23.1937102846        4.4704833805       11.6663029447
 Si        19.1912017408        8.8384960529       12.0845164053
 Si        21.2071269582        7.8060109650       11.6471271071
 Si        17.3681408889       12.2416804607       12.1687153374
 Si        19.2920568155       11.1035149560       11.6626126227
 Si        15.4183694362       15.5874627215       12.1415860314
 Si        17.3813353189       14.4831020868       11.7091052329
 Si        13.5113477835       18.9228971214       11.9808357327
 Si        15.4827847156       17.8289049049       11.6569710588
 Si        11.5658257791       22.3226313509       11.9368751902
 Si        13.5239919399       21.1860982943       11.5053723316
 Si         9.6463007729       25.6373029765       12.0748512290
 Si        11.6175623225       24.5767695498       11.5854990457
 Si        27.0614545984        2.2706686852       12.1290043627
 Si        29.0100829289        1.1737608953       11.6400207337
 Si        25.1515010844        5.5806505873       12.1675029039
 Si        27.1293289483        4.5180904273       11.6618454900
 Si        23.1522793058        8.9220023806       12.2031101779
 Si        25.1020135152        7.8131663983       11.6893248386
 Si        21.2277865118       12.2209664920       12.2323474755
 Si        23.1834279683       11.1601753274       11.7096650647
 Si        19.3315649664       15.5993466995       12.2113219810
 Si        21.2766639860       14.4703743432       11.7498554982
 Si        17.4070615037       18.9585080551       12.1587084323
 Si        19.3476190916       17.8353290417       11.7132323645
 Si        15.4507041610       22.3184034428       12.0550329852
 Si        17.4071642900       21.1902116803       11.6278422323
 Si        13.5537321917       25.6849743506       12.1018111433
 Si        15.5000185352       24.5847292545       11.5972425196
  H        16.1927910599        7.7228173718       15.9188677562
  C        17.1990397332        7.8530932289       15.4927057896
  H        18.0339803815        8.0665697681       16.1767481609
  O        17.4010611545        7.7255999330       14.2890589108
     132
 i =        4, E =      -531.3182564867
 Si         0.0603052644        2.2884067252       12.1743427772
 Si         2.0264061333        1.2620238962       11.6454459149
 Si        -1.7882237596        5.6343205281       12.1747630889
 Si         0.1698829585        4.5077749079       11.6587883672
 Si        -3.8406208480        8.9214989851       12.1913508657
 Si        -1.8611322032        7.8783863514       11.6904630650
 Si        -5.7595512485       12.2923020383       12.1955310210
 Si        -3.8568568255       11.1469004485       11.6742534653
 Si        -7.6499202599       15.5897890948       12.2176503906
 Si        -5.6750844713       14.5276973294       11.6895217986
 Si        -9.6111558379       18.9559082305       12.2123652163
 Si        -7.6889956578       17.8234457861       11.7142773433
 Si       -11.5477368016       22.3114144953       12.1435633882
 Si        -9.5871517508       21.1905435178       11.6988857643
 Si       -13.4525930702       25.7359241036       12.1099110017
 Si       -11.5539073222       24.5486507569       11.6361991996
 Si         3.9788056766        2.4062335509       12.1963192007
 Si         5.8058537007        1.1360884380       11.7072155102
 Si         2.1288126991        5.6360658100       12.1980658317
 Si         4.1931055159        4.6784628664       11.7121567042
 Si         0.0776408587        9.0406286898       12.1572632700
 Si         1.9456996318        7.8401907041       11.6440100750
 Si        -1.9098634778       12.2711526255       12.0886715607
 Si         0.0780335585       11.2835792496       11.6059898935
 Si        -3.7044066899       15.6505405194       12.1486166189
 Si        -1.7794553303       14.4881207120       11.6396504291
 Si        -5.7482430705       18.9460185299       12.1429139916
 Si        -3.7782573249       17.8903566493       11.6967682658
 Si        -7.6226349562       22.2992662387       12.1345564915
 Si        -5.6684721186       21.1784519791       11.6888266785
 Si        -9.6192677012       25.6417049100       12.1594452563
 Si        -7.6862962083       24.5326030684       11.6345947592
 Si         7.6452628997        2.3815999163       12.1724756243
 Si         9.5969926218        1.1885333696       11.6229700999
  N         5.7797412438        5.6040031569       11.8271691790
 Si         7.3771782599        4.6696197329       11.7030886740
 Si         3.9024806705        8.8575928224       12.1598819927
 Si         5.7692070924        7.4714555392       11.6475587720
 Si         1.9337226509       12.5936710722       12.0020593966
 Si         3.7995827712       11.1692436259       11.6224327756
 Si         0.3005123118       15.4357533254       11.9476923480
  C         1.9095315053       14.4695184602       11.8559522593
 Si        -1.8827870278       19.1287723184       11.9637689149
 Si        -0.0049371466       17.7548113681       11.7113658738
 Si        -3.6026376593       22.1400051946       11.9833500136
  B        -1.9015425002       21.1191392201       11.8738265343
 Si        -5.7703119753       25.6577444688       12.1237688185
 Si        -3.8364121293       24.4437121288       11.6808304566
 Si        11.5368906571        2.2377325003       12.1749068254
 Si        13.4883070750        1.1365349627       11.6688866908
 Si         9.4508532832        5.5941084650       12.2081989227
 Si        11.4184140089        4.4580508036       11.6583728916
 Si         7.6320720468        8.7505319131       12.2114364181
 Si         9.6514776945        7.8017416059       11.7154626224
 Si         5.7476189310       12.1955497396       12.1078838014
 Si         7.6264152858       10.9957335004       11.6164875217
 Si         3.5223863354       15.3956361043       11.9236971470
 Si         5.5912303636       14.4028927388       11.5919233872
 Si         1.8889389201       18.9366823364       11.9985285441
 Si         3.7191191374       17.6800776385       11.5795594265
 Si        -0.2254066317       22.1434903921       11.9656875758
 Si         1.8254181611       21.1857748846       11.6208474279