     132
 i =        1, E =      -531.2120892207
 Si         0.0601794575        2.2887563119       12.1734764963
 Si         2.0257578141        1.2606414822       11.6451330964
 Si        -1.7875320604        5.6321588732       12.1703373560
 Si         0.1701261094        4.5079035308       11.6582195116
 Si        -3.8460842567        8.9187260067       12.1879659585
 Si        -1.8610572129        7.8778882741       11.6917374834
 Si        -5.7587977307       12.2919893979       12.1975260504
 Si        -3.8586842703       11.1470860741       11.6743413148
 Si        -7.6503539862       15.5921062080       12.2220816264
 Si        -5.6778596050       14.5299841150       11.6990094171
 Si        -9.6111644758       18.9546557210       12.2124607929
 Si        -7.6841854534       17.8241014483       11.7233444774
 Si       -11.5484962059       22.3089791673       12.1437272514
 Si        -9.5871632719       21.1904983264       11.7048076124
 Si       -13.4515678397       25.7364069259       12.1136128639
 Si       -11.5551835454       24.5505434071       11.6349568166
 Si         3.9778936059        2.4057493896       12.1964927266
 Si         5.8065617874        1.1376291730       11.7039262097
 Si         2.1282409499        5.6334189260       12.2005289985
 Si         4.1932611523        4.6794487380       11.7139644809
 Si         0.0770161017        9.0395338248       12.1586036260
 Si         1.9470853055        7.8398694903       11.6454587595
 Si        -1.9093946827       12.2690096440       12.0893782685
 Si         0.0780250371       11.2845966696       11.6055159000
 Si        -3.7035053375       15.6550803181       12.1454112882
 Si        -1.7819233172       14.4862111245       11.6414519821
 Si        -5.7399488653       18.9495295071       12.1382544757
 Si        -3.7880716376       17.8849000470       11.6416990648
 Si        -7.6210079623       22.3018563041       12.1332172240
 Si        -5.6803989100       21.1755959018       11.6410635915
 Si        -9.6192840181       25.6425273743       12.1573350016
 Si        -7.6859997237       24.5303265129       11.6328427589
 Si         7.6467407585        2.3860079472       12.1781297021
 Si         9.5992329672        1.1881362915       11.6324656069
  N         5.7792918693        5.6042884621       11.8276188533
 Si         7.3762774319        4.6688250867       11.7025554831
 Si         3.9046021582        8.8594092337       12.1617518048
 Si         5.7691069806        7.4718491076       11.6445108475
 Si         1.9345621652       12.5925218034       12.0040216976
 Si         3.7978494048       11.1679833790       11.6283045055
 Si         0.3001445460       15.4355290583       11.9238141886
  C         1.9097854372       14.4692831145       11.8560754510
 Si        -1.8839792478       19.1342175268       11.7479070955
 Si         0.0013642647       17.7559490738       11.6494607801
 Si        -3.5995376376       22.1364031398       11.7808249375
  B        -1.9043076712       21.1190141558       11.6043816005
 Si        -5.7668700349       25.6513771683       12.1135276446
 Si        -3.8371277612       24.4528593072       11.6172973924
 Si        11.5371465415        2.2390207599       12.1734869452
 Si        13.4938513542        1.1322587133       11.6741512731
 Si         9.4521329224        5.5930336660       12.2080780276
 Si        11.4152515403        4.4577028508       11.6498184745
 Si         7.6285618967        8.7501969091       12.2172709984
 Si         9.6478388636        7.8002871350       11.7060466492
 Si         5.7475088163       12.1939114969       12.1056038455
 Si         7.6272945161       10.9940728607       11.6165302521
 Si         3.5234503181       15.3947634292       11.9252461528
 Si         5.5899766284       14.4038667291       11.5921867039
 Si         1.8847582768       18.9406768227       11.9895616680
 Si         3.7149008863       17.6811482909       11.5870371118
 Si        -0.2355441282       22.1373625301       11.7813331762
 Si         1.8332696214       21.1821302549       11.5740661835
 Si        -1.9435251820       25.6262857657       12.0968167893
 Si        -0.0605600891       24.4338959425       11.6094015760
 Si        15.4217410461        2.2484138051       12.1684337824
 Si        17.3158228787        1.0752781345       11.6543540785
 Si        13.3880004143        5.5465968808       12.1587698606
 Si        15.3644552090        4.4774153503       11.6194685791
 Si        11.5875987364        8.9141718794       12.2203999050
 Si        13.5070445707        7.7724894480       11.6681173216
 Si         9.5577183261       12.1897839815       12.0851545176
 Si        11.5474862179       11.1245231604       11.6560417207
 Si         7.5541998699       15.5612824448       11.8924530084
 Si         9.5281748591       14.4083754207       11.4910323364
 Si         5.6946367280       18.8077374467       11.8805147466
 Si         7.5814344294       17.7328701747       11.2552342975
 Si         3.8077365130       22.2555060307       12.0150412918
 Si         5.7041781338       21.0959723749       11.4696650947
 Si         1.8785788684       25.5634956734       12.0939698294
 Si         3.8315623411       24.5078658567       11.5836640933
 Si        19.2325057693        2.2038477089       12.1691616847
 Si        21.2046468942        1.1380599026       11.6336304033
 Si        17.2809848061        5.6142778640       12.1841219874
 Si        19.2812143461        4.4921199954       11.6800073710
 Si        15.4769330777        8.8650116903       12.1984473443
  P        17.3609507816        7.7945697121       11.5648375969
 Si        13.5008787481       12.1942688980       12.2004740539
 Si        15.4496916552       11.0970101367       11.6701666504
 Si        11.5176959997       15.5281757344       11.9751712057
 Si        13.4952699502       14.4139601571       11.6510500798
 Al         9.6164981448       18.9153957805       11.6534061387
 Si        11.6564592084       17.7286316620       11.3895335346
 Si         7.6622223621       22.2750492522       11.9233060724
 Si         9.6247533846       21.2805075511       11.3616898522
 Si         5.7507788987       25.6494094576       12.1067332708
 Si         7.6775901594       24.5426152450       11.5857094887
 Si        23.1746211400        2.2423823066       12.1461670064
 Si        25.1182161506        1.1411869108       11.6239701861
 Si        21.2344598430        5.6206049165       12.2350604504
 Si        23.2315591988        4.5141905457       11.6800036970
 Si        19.2562119938        8.8773721272       12.2017325123
 Si        21.2331776012        7.8591574740       11.6754547062
 Si        17.3667689454       12.2498848070       12.1779818648
 Si        19.2833565156       11.1181713207       11.6683182245
 Si        15.4174224975       15.5874949047       12.1412499327
 Si        17.3810628290       14.4865634452       11.7029742867
 Si        13.5108478799       18.9209581659       11.9803385937
 Si        15.4835827701       17.8284449126       11.6560901548
 Si        11.5673287670       22.3243740234       11.9364992183
 Si        13.5231534934       21.1876220206       11.5042788443
 Si         9.6449336593       25.6360197396       12.0757891221
 Si        11.6164115934       24.5772382801       11.5858977344
 Si        27.0685809834        2.2732647990       12.1337158554
 Si        29.0091263587        1.1752264919       11.6372472123
 Si        25.1819654527        5.5950492146       12.1909855855
 Si        27.1333275642        4.5150554553       11.6594337707
 Si        23.1703680955        8.9311179697       12.2120775518
 Si        25.1027748521        7.8173076261       11.6834398914
 Si        21.2328009960       12.2253113424       12.2262565834
 Si        23.1871755795       11.1574354853       11.7096706504
 Si        19.3307173163       15.5978644476       12.2127644055
 Si        21.2754706874       14.4725404614       11.7447811377
 Si        17.4073096561       18.9577639294       12.1591313871
 Si        19.3462346767       17.8354958847       11.7108088100
 Si        15.4500956948       22.3177970313       12.0526647093
 Si        17.4072249038       21.1881032743       11.6267751118
 Si        13.5566958264       25.6856983943       12.1007683640
 Si        15.4988216528       24.5869999396       11.5975441691
  H        21.4905638892        3.7822862072       10.8374341533
  C        20.7660830768        4.2780133483       10.1824286377
  H        20.6971454251        3.9847219082        9.1277923970
  O        20.2678625081        5.4275821899       10.6541695629
     132
 i =        2, E =      -531.2482571578
 Si         0.0625294887        2.2896440225       12.1738090173
 Si         2.0264183663        1.2602309548       11.6437843984
 Si        -1.7804714924        5.6337794220       12.1676357451
 Si         0.1730901786        4.5063174019       11.6589406431
 Si        -3.8458689533        8.9246326793       12.1866062839
 Si        -1.8609072320        7.8807207267       11.6952180735
 Si        -5.7533364266       12.2974456808       12.1951814956
 Si        -3.8558693342       11.1502542357       11.6752531623
 Si        -7.6493321124       15.5905798047       12.2244117993
 Si        -5.6765188297       14.5317383230       11.6999477552
 Si        -9.6113505431       18.9567114775       12.2133071048
 Si        -7.6867692304       17.8217661945       11.7238982098
 Si       -11.5487155917       22.3084835736       12.1418170790
 Si        -9.5870626293       21.1876378572       11.7045918473
 Si       -13.4503744970       25.7370214140       12.1160070723
 Si       -11.5553635126       24.5526495476       11.6381134467
 Si         3.9797836264        2.4039817771       12.1954057939
 Si         5.8074178684        1.1363911590       11.7009228139
 Si         2.1293259071        5.6344627008       12.2003885438
 Si         4.1938036906        4.6796125621       11.7153798009
 Si         0.0765605407        9.0419918721       12.1572152589
 Si         1.9463222327        7.8407149619       11.6500647118
 Si        -1.9088325327       12.2682782479       12.0896005296
 Si         0.0775740524       11.2840903221       11.6029334061
 Si        -3.7033812120       15.6552556425       12.1433452252
 Si        -1.7839053364       14.4834015603       11.6408832182
 Si        -5.7403615457       18.9477655984       12.1285153424
 Si        -3.7887586885       17.8818243093       11.6348698006
 Si        -7.6194113459       22.3008251015       12.1313471983
 Si        -5.6813245579       21.1786672529       11.6350776555
 Si        -9.6197366578       25.6471744031       12.1587584560
 Si        -7.6871814827       24.5325688215       11.6294325449
 Si         7.6450038329        2.3863399103       12.1800623290
 Si         9.6004737568        1.1918131883       11.6371363869
  N         5.7796362479        5.6044712031       11.8232340716
 Si         7.3760372285        4.6681634146       11.7030157109
 Si         3.9032447518        8.8594387843       12.1644365035
 Si         5.7699140285        7.4731006004       11.6373127635
 Si         1.9291034174       12.5925255669       12.0033691365
 Si         3.7984643416       11.1678325638       11.6318388386
 Si         0.3012183345       15.4356131645       11.9173849926
  C         1.9096911344       14.4699007188       11.8536716475
 Si        -1.8819070704       19.1299739808       11.7634382372
 Si         0.0011786300       17.7547677391       11.6433282349
 Si        -3.6022067088       22.1415072170       11.7914908826
  B        -1.9048580226       21.1181681329       11.6484676636
 Si        -5.7656573509       25.6448162594       12.1092434802
 Si        -3.8384059086       24.4509257516       11.6110943948
 Si        11.5355024236        2.2411551484       12.1738388978
 Si        13.4920855249        1.1369021856       11.6782272956
 Si         9.4517890150        5.5919560030       12.2058740549
 Si        11.4112786378        4.4569251039       11.6505875276
 Si         7.6260515374        8.7500638132       12.2175006661
 Si         9.6455835197        7.8000142803       11.7099904872
 Si         5.7483232425       12.1976530780       12.1037956638
 Si         7.6276151888       10.9951968537       11.6216802648
 Si         3.5249404041       15.3946283716       11.9271420030
 Si         5.5901998897       14.4026619594       11.5894414814
 Si         1.8846662264       18.9407669096       11.9818411403
 Si         3.7152094510       17.6785837316       11.5870141062
 Si        -0.2310368926       22.1373605362       11.7855270157
 Si         1.8318142365       21.1814761096       11.5706821833
 Si        -1.9394019820       25.6217190483       12.0792750489
 Si        -0.0658536161       24.4274805743       11.6083377240
 Si        15.4197949494        2.2392517977       12.1776369043
 Si        17.3053363595        1.0554613368       11.6439164414
 Si        13.3781936985        5.5434887596       12.1598036581
 Si        15.3742847874        4.4894974056       11.6102228914
 Si        11.5846674161        8.9146620845       12.2179414955
 Si        13.5112759717        7.7709296956       11.6685344923
 Si         9.5578948366       12.1879155071       12.0837899359
 Si        11.5487253942       11.1264301292       11.6540348576
 Si         7.5492436905       15.5598849346       11.8924657361
 Si         9.5270489580       14.4091682263       11.4923301818
 Si         5.6934987390       18.8097343646       11.8810483401
 Si         7.5813777645       17.7322188444       11.2587349960
 Si         3.8092578889       22.2544312314       12.0122165107
 Si         5.7028158410       21.0948562044       11.4707138488
 Si         1.8754294065       25.5525201862       12.0835642776
 Si         3.8313537613       24.5047424625       11.5805427099
 Si        19.2150884293        2.1990024390       12.2032729218
 Si        21.2120713948        1.1291423164       11.6375076079
 Si        17.2672680607        5.6128760683       12.1804140315
 Si        19.3080231357        4.5479573486       11.7505811577
 Si        15.4824613460        8.8694261310       12.2017738614
  P        17.3643671296        7.7897949486       11.5488612223
 Si        13.4979761851       12.1952286081       12.2006597143
 Si        15.4488291515       11.0966724688       11.6692891886
 Si        11.5197095004       15.5273551771       11.9762215852
 Si        13.4965768581       14.4131237812       11.6513992618
 Al         9.6150869117       18.9176630754       11.6496852972
 Si        11.6570141056       17.7280897797       11.3898700815
 Si         7.6623730218       22.2725332726       11.9232742082
 Si         9.6253674124       21.2795546857       11.3637376965
 Si         5.7508641469       25.6446977445       12.1117787117
 Si         7.6803881259       24.5414382955       11.5879253553
 Si        23.1870591942        2.2667287593       12.1540797925
 Si        25.1105918550        1.1451746792       11.6274696217
 Si        21.2527692449        5.6893115018       12.3366928662
 Si        23.2613404947        4.5546473260       11.7405832836
 Si        19.2429599328        8.8946962404       12.2172592969
 Si        21.2522629807        7.9139314973       11.7247614709
 Si        17.3666036691       12.2531112145       12.1778258557
 Si        19.2790360241       11.1247756141       11.6661420233
 Si        15.4177484944       15.5883923733       12.1416672793
 Si        17.3799947757       14.4880287056       11.7033229416
 Si        13.5106697591       18.9198925399       11.9787850372
 Si        15.4853814501       17.8249166495       11.6557581335
 Si        11.5666365301       22.3266717063       11.9361586034
 Si        13.5225844074       21.1889734505       11.5042832516
 Si         9.6451034640       25.6392847836       12.0750498186
 Si        11.6151605730       24.5772987914       11.5862272559
 Si        27.0687020706        2.2721803354       12.1381697791
 Si        29.0119347705        1.1776700289       11.6368912547
 Si        25.1990152357        5.6077054606       12.2217722256
 Si        27.1447238586        4.5153519153       11.6560645866
 Si        23.2010576258        8.9599778542       12.2481264463
 Si        25.1126965293        7.8266355861       11.6684472239
 Si        21.2320600580       12.2268808970       12.2259739573
 Si        23.1942817167       11.1701289774       11.7047260779
 Si        19.3303272553       15.5973379824       12.2096811620
 Si        21.2767083531       14.4685612271       11.7471472574
 Si        17.4079128372       18.9569833286       12.1613491537
 Si        19.3466592634       17.8348915615       11.7109422348
 Si        15.4498646050       22.3191109528       12.0504178426
 Si        17.4079528270       21.1877721235       11.6263784899
 Si        13.5556310716       25.6843733231       12.0985619862
 Si        15.4992443657       24.5865584868       11.5986824189
  H        21.4773589997        3.6922977572       10.6898242944
  C        20.5671159718        4.0280133483       10.1389769860
  H        20.6714413320        3.9880338243        9.0003769938
  O        20.3708102268        5.4772906361       10.6178850149
     132
 i =        3, E =      -531.2581927215
 Si         0.0628622332        2.2886603626       12.1744033449
 Si         2.0275716603        1.2600004319       11.6430816284
 Si        -1.7779658637        5.6348501881       12.1675181893
 Si         0.1757093386        4.5069404421       11.6588188345
 Si        -3.8413568495        8.9268588157       12.1882059435
 Si        -1.8594052530        7.8821396307       11.6955660888
 Si        -5.7511033333       12.3031184853       12.1949563544
 Si        -3.8541079312       11.1516523804       11.6745345827
 Si        -7.6500304563       15.5899373601       12.2253393123
 Si        -5.6743544761       14.5348468748       11.6993965140
 Si        -9.6112781655       18.9550544163       12.2142900682
 Si        -7.6865483847       17.8222394611       11.7238141857
 Si       -11.5491985524       22.3090561638       12.1413381377
 Si        -9.5864433393       21.1886351941       11.7039953257
 Si       -13.4513392780       25.7374450885       12.1162593198
 Si       -11.5546745455       24.5525766711       11.6392188905
 Si         3.9802417425        2.4038907888       12.1945484396
 Si         5.8078313453        1.1373880052       11.7004644345
 Si         2.1307489774        5.6359001684       12.2001138712
 Si         4.1944685587        4.6793471686       11.7156532306
 Si         0.0765328492        9.0420268547       12.1570591184
 Si         1.9462983982        7.8412936470       11.6518760782
 Si        -1.9077290644       12.2695527989       12.0906154671
 Si         0.0783950390       11.2837934294       11.6011460388
 Si        -3.7026343443       15.6566176584       12.1415929493
 Si        -1.7833686767       14.4844213179       11.6403494370
 Si        -5.7402530526       18.9482017120       12.1229819561
 Si        -3.7877379871       17.8826165546       11.6327246967
 Si        -7.6188224057       22.3002498760       12.1293194360
 Si        -5.6811581934       21.1777026024       11.6324962402
 Si        -9.6192537737       25.6463889579       12.1596370850
 Si        -7.6880609995       24.5327739894       11.6277169295
 Si         7.6440368665        2.3849050274       12.1798327152
 Si         9.5992828240        1.1921435309       11.6389748515
  N         5.7799736215        5.6047870818       11.8220692471
 Si         7.3759725760        4.6682084724       11.7028045470
 Si         3.9035022650        8.8586772855       12.1647358968
 Si         5.7687226343        7.4735943329       11.6369010363
 Si         1.9296396043       12.5929216078       12.0037080705
 Si         3.7979056852       11.1675621827       11.6320470042
 Si         0.3011805868       15.4366701913       11.9141725593
  C         1.9085046664       14.4700801408       11.8517502176
 Si        -1.8829447807       19.1277657421       11.7730841428
 Si         0.0004147200       17.7539159435       11.6412821651
 Si        -3.6032652934       22.1399468116       11.8000902747
  B        -1.9069357321       21.1152298572       11.6645123191
 Si        -5.7660694847       25.6457620509       12.1069904633
 Si        -3.8395457528       24.4494023544       11.6074064774
 Si        11.5348000358        2.2403223731       12.1759913448
 Si        13.4912598352        1.1395100932       11.6791983305
 Si         9.4500059075        5.5933194482       12.2061508023
 Si        11.4105865702        4.4567656298       11.6488429021
 Si         7.6268736054        8.7487356792       12.2165297775
 Si         9.6461232887        7.8017501302       11.7129199600
 Si         5.7476721708       12.1975599139       12.1043874480
 Si         7.6276379948       10.9947727924       11.6232009172
 Si         3.5233545608       15.3955466472       11.9274819529
 Si         5.5897466221       14.4030102040       11.5873269769
 Si         1.8837349342       18.9383996181       11.9774321178
 Si         3.7165943676       17.6781501969       11.5873592395
 Si        -0.2326130585       22.1337331020       11.7913407669
 Si         1.8329935469       21.1803699249       11.5687027006
 Si        -1.9404532934       25.6229675086       12.0723202502
 Si        -0.0658650364       24.4244345894       11.6061437262
 Si        15.4270716981        2.2327204946       12.1783130137
 Si        17.3113605518        1.0537095094       11.6465100847
 Si        13.3764732486        5.5473003114       12.1589628678
 Si        15.3711514882        4.4848782309       11.6081075070
 Si        11.5854278275        8.9140172496       12.2152168322
 Si        13.5120919369        7.7732401926       11.6712406409
 Si         9.5585658844       12.1876642682       12.0842700645
 Si        11.5482182541       11.1249891561       11.6532930247
 Si         7.5492564656       15.5604773739       11.8929580193
 Si         9.5265766717       14.4097686078       11.4924242691
 Si         5.6930937786       18.8096524999       11.8811519731
 Si         7.5815390302       17.7337334767       11.2607905121
 Si         3.8102914967       22.2547314958       12.0129447592
 Si         5.7040586059       21.0931505115       11.4692104387
 Si         1.8746126930       25.5525409632       12.0775562567
 Si         3.8365226974       24.5039842280       11.5759939188
 Si        19.2176196187        2.1917120224       12.2121918239
 Si        21.2110823326        1.1372423592       11.6563452709
 Si        17.2819825423        5.6139151212       12.1722723615
 Si        19.3233119961        4.5073007204       11.7175304964
 Si        15.4810723657        8.8677726338       12.1999641578
  P        17.3657681674        7.7946438865       11.5456118701
 Si        13.4983756503       12.1948619046       12.2014137696
 Si        15.4482613610       11.0975646908       11.6689910052
 Si        11.5194801099       15.5281204809       11.9761278082
 Si        13.4967890366       14.4133191941       11.6510644755
 Al         9.6152769079       18.9167761289       11.6483958589
 Si        11.6560983070       17.7293168421       11.3900932610
 Si         7.6612899392       22.2707588215       11.9248052256
 Si         9.6265942143       21.2770437192       11.3630683565
 Si         5.7517685732       25.6512128358       12.1124712277
 Si         7.6786374527       24.5399266079       11.5890074580
 Si        23.1846930029        2.2667465634       12.1619746207
 Si        25.1081852416        1.1510255437       11.6346365510
 Si        21.2674867078        5.6960479793       12.3198631572
 Si        23.2663259903        4.5416849944       11.7803467103
 Si        19.2420299351        8.9038548544       12.2280594510
 Si        21.2549830576        7.9225532504       11.7538441289
 Si        17.3638740732       12.2561179731       12.1761616355
 Si        19.2769140729       11.1286774697       11.6646702049
 Si        15.4180543241       15.5883450359       12.1427838187
 Si        17.3794125848       14.4900257962       11.7032535673
 Si        13.5110827944       18.9206666913       11.9778305296
 Si        15.4847070938       17.8262978762       11.6555396109
 Si        11.5663683527       22.3255992957       11.9365915174
 Si        13.5232371245       21.1877571849       11.5046921278
 Si         9.6443581408       25.6442794798       12.0739435290
 Si        11.6153419726       24.5781767166       11.5853331464
 Si        27.0659073716        2.2721576982       12.1366567016
 Si        29.0125795077        1.1778359317       11.6372854446
 Si        25.2098693226        5.6137690098       12.2346455974
 Si        27.1502237534        4.5152238171       11.6564766238
 Si        23.2115667561        8.9730640196       12.2654857724
 Si        25.1160766430        7.8297724582       11.6632535145
 Si        21.2315030644       12.2255510120       12.2264383060
 Si        23.1975373990       11.1806301718       11.7020042125
 Si        19.3307349251       15.5975864663       12.2088757359
 Si        21.2768419281       14.4701729335       11.7479209726
 Si        17.4076964152       18.9568005423       12.1617707061
 Si        19.3468770580       17.8347642102       11.7111634116
 Si        15.4498970576       22.3187161013       12.0493139469
 Si        17.4072950553       21.1878105453       11.6263951008
 Si        13.5557774009       25.6857247773       12.0980484500
 Si        15.5007005636       24.5858856357       11.5990630252
  H        21.4556052587        3.6314388171       10.6015976551
  C        20.5633018464        4.0553864828       10.1242063588
  H        20.6096520648        3.9534805255        9.0533831178
  O        20.3589769088        5.5155244796       10.5951874395
     132
 i =        4, E =      -531.2682136949
 Si         0.0630905604        2.2875641290       12.1754129792
 Si         2.0286921872        1.2594504881       11.6415518460
 Si        -1.7720902348        5.6355454626       12.1679364130
 Si         0.1814912389        4.5079891021       11.6587556121
 Si        -3.8348680424        8.9297197502       12.1908963476
 Si        -1.8556287514        7.8839566761       11.6943676987
 Si        -5.7459226109       12.3143550320       12.1945715440
 Si        -3.8504685370       11.1554310973       11.6732411451
 Si        -7.6510004440       15.5900429765       12.2268331040
 Si        -5.6711057033       14.5424806284       11.6976320071
 Si        -9.6110120125       18.9530100507       12.2153135296
 Si        -7.6871101834       17.8222917719       11.7234261483
 Si       -11.5489092613       22.3098698864       12.1403994969
 Si        -9.5858408498       21.1905219833       11.7033171039
 Si       -13.4522898563       25.7379663417       12.1168330734
 Si       -11.5536478090       24.5521282314       11.6412340242
 Si         3.9804440723        2.4046141641       12.1930328517
 Si         5.8083257478        1.1386042106       11.6997896244
 Si         2.1335746710        5.6372641064       12.1997689549
 Si         4.1951799819        4.6792026832       11.7159640642
 Si         0.0778882494        9.0429181293       12.1577257023
 Si         1.9470213811        7.8418119077       11.6542157460
 Si        -1.9046545478       12.2723744370       12.0923350547
 Si         0.0797711996       11.2845169639       11.5983610254
 Si        -3.7001035545       15.6592773157       12.1380475654
 Si        -1.7821710962       14.4864331221       11.6390525550
 Si        -5.7405626801       18.9489151866       12.1129637298
 Si        -3.7860603472       17.8842782945       11.6286284273
 Si        -7.6191572357       22.3000090632       12.1253048235
 Si        -5.6809496996       21.1763352869       11.6273288959
 Si        -9.6182525936       25.6436974290       12.1609336476
 Si        -7.6893407509       24.5320057458       11.6242993436
 Si         7.6426699571        2.3841792489       12.1796226155
 Si         9.5976963516        1.1914456996       11.6418885567
  N         5.7800186648        5.6047345231       11.8208334883
 Si         7.3760812561        4.6694148110       11.7016780876
 Si         3.9047779045        8.8584643357       12.1659126306
 Si         5.7671805695        7.4735097301       11.6369536871
 Si         1.9313459275       12.5934762802       12.0039405994
 Si         3.7969361651       11.1679717878       11.6314525439
 Si         0.3006704019       15.4371463503       11.9084561875
  C         1.9067005229       14.4702788396       11.8479772334
 Si        -1.8852135896       19.1248562290       11.7930652801
 Si        -0.0008292661       17.7528231602       11.6376764348
 Si        -3.6048460365       22.1361755718       11.8183958003
  B        -1.9094740788       21.1106788495       11.6920905809
 Si        -5.7669830891       25.6472593051       12.1021364396
 Si        -3.8407727393       24.4472326233       11.6010874924
 Si        11.5344536059        2.2405655595       12.1801492158
 Si        13.4933941323        1.1416407180       11.6806544688
 Si         9.4469759357        5.5944752989       12.2071379890
 Si        11.4092030039        4.4587668049       11.6461195007
 Si         7.6276778428        8.7481293079       12.2150439198
 Si         9.6466550535        7.8028404054       11.7161079081
 Si         5.7464735479       12.1966668995       12.1053700130
 Si         7.6274265016       10.9946172056       11.6262022496
 Si         3.5213792329       15.3956238163       11.9275219015
 Si         5.5886857304       14.4036014903       11.5843486863
 Si         1.8827985715       18.9358252089       11.9688075823
 Si         3.7179274884       17.6769291753       11.5869408326
 Si        -0.2348932607       22.1274413926       11.8049767924
 Si         1.8348423459       21.1799249079       11.5652497303