     132
 i =        1, E =      -531.2274901062
 Si         0.0617202515        2.2884085189       12.1740602711
 Si         2.0253592151        1.2603802749       11.6473288061
 Si        -1.7886192548        5.6335818340       12.1745678497
 Si         0.1705765181        4.5073994579       11.6570269151
 Si        -3.8402464904        8.9218986474       12.1903427376
 Si        -1.8606808487        7.8787919010       11.6907081939
 Si        -5.7575962672       12.2911177034       12.1986635381
 Si        -3.8592545358       11.1468842076       11.6736773795
 Si        -7.6495907343       15.5920940687       12.2231727163
 Si        -5.6788294024       14.5296811335       11.6988465604
 Si        -9.6114648310       18.9557553569       12.2134911574
 Si        -7.6847636292       17.8237209165       11.7220498056
 Si       -11.5499638276       22.3099626694       12.1407732768
 Si        -9.5854347032       21.1882040973       11.7009991185
 Si       -13.4529973691       25.7373055139       12.1095227139
 Si       -11.5565650344       24.5478089730       11.6383594292
 Si         3.9752436084        2.4064552859       12.1972126722
 Si         5.8061454414        1.1366392680       11.7046943767
 Si         2.1292133019        5.6343031570       12.2007385473
 Si         4.1943245368        4.6798842541       11.7129560143
 Si         0.0795024491        9.0396720953       12.1598798427
 Si         1.9465683654        7.8416817154       11.6418049980
 Si        -1.9086586824       12.2689334883       12.0889167171
 Si         0.0767726534       11.2837664866       11.6058080515
 Si        -3.7030799932       15.6561075076       12.1450606668
 Si        -1.7815574518       14.4859277926       11.6417308046
 Si        -5.7402562477       18.9499435584       12.1386379686
 Si        -3.7876491541       17.8837593575       11.6418266641
 Si        -7.6209062164       22.3016995383       12.1347183261
 Si        -5.6797550166       21.1742830961       11.6412313750
 Si        -9.6192821874       25.6424785218       12.1577887107
 Si        -7.6856791281       24.5303093823       11.6312001130
 Si         7.6486596931        2.3854306230       12.1798894687
 Si         9.5979010013        1.1866330747       11.6310574224
  N         5.7805182157        5.6039549012       11.8280623392
 Si         7.3766444014        4.6672861353       11.7001616078
 Si         3.9061176971        8.8585377084       12.1642678314
 Si         5.7679356950        7.4719142211       11.6427298588
 Si         1.9345961063       12.5936316540       12.0031785304
 Si         3.7975456116       11.1674855588       11.6287822688
 Si         0.2997843788       15.4360540817       11.9240212039
  C         1.9104501502       14.4703081251       11.8565508452
 Si        -1.8842680887       19.1349818703       11.7486008038
 Si         0.0017274611       17.7546705885       11.6494578843
 Si        -3.5981922489       22.1381560543       11.7811763382
  B        -1.9039943372       21.1191711426       11.6036825666
 Si        -5.7669330673       25.6538248594       12.1136359498
 Si        -3.8366236960       24.4527998100       11.6177794608
 Si        11.5370500924        2.2378034059       12.1754235278
 Si        13.4885996999        1.1286766370       11.6724236049
 Si         9.4511237829        5.5932474199       12.2099796750
 Si        11.4143866487        4.4563512023       11.6504290000
 Si         7.6288001768        8.7495321880       12.2179782374
 Si         9.6474189958        7.8012185268       11.7033246979
 Si         5.7478351497       12.1944738600       12.1043820342
 Si         7.6288514359       10.9943016987       11.6160308253
 Si         3.5247365658       15.3943292126       11.9247134575
 Si         5.5926134906       14.4052012664       11.5948182528
 Si         1.8844093271       18.9401956263       11.9899324423
 Si         3.7175860606       17.6815572500       11.5872569231
 Si        -0.2359377992       22.1391909331       11.7786061701
 Si         1.8338250102       21.1824308224       11.5747425260
 Si        -1.9442947753       25.6268216034       12.0969368002
 Si        -0.0597484608       24.4340071308       11.6128546369
 Si        15.4251157311        2.2472152291       12.1683474238
 Si        17.3269566155        1.0796004318       11.6547321679
 Si        13.3900268885        5.5475153686       12.1620663244
 Si        15.3704188785        4.4833547543       11.6219193497
 Si        11.5852358947        8.9141147125       12.2215181809
 Si        13.5080219845        7.7743104132       11.6672215654
 Si         9.5576846797       12.1914086674       12.0860130553
 Si        11.5470959635       11.1252206834       11.6548364601
 Si         7.5539968513       15.5551733455       11.8923325460
 Si         9.5224330584       14.4075162185       11.4924201519
 Si         5.6964214563       18.8082681355       11.8779846399
 Si         7.5670216253       17.7158754921       11.2451299324
 Si         3.8072059972       22.2557317958       12.0192119864
 Si         5.7056651946       21.0913800078       11.4637366868
 Si         1.8736106659       25.5649028433       12.0971418338
 Si         3.8379461374       24.5065388764       11.5820005811
 Si        19.2506240804        2.2365046038       12.1527488667
 Si        21.2049714510        1.1496328795       11.6360085376
 Si        17.3193567288        5.6030141395       12.1627622171
 Si        19.2671691579        4.4790122102       11.6277191130
 Si        15.4751862370        8.8629749846       12.2016519859
  P        17.3627753139        7.7883902694       11.5722013273
 Si        13.5000064893       12.1946937509       12.2010988363
 Si        15.4475426187       11.0966211304       11.6651488562
 Si        11.5103088235       15.4975574549       11.9859872845
 Si        13.4983976246       14.4155247009       11.6542523142
 Al         9.5746943323       18.8741741568       11.7145062158
 Si        11.6577794522       17.6856631540       11.3976222543
 Si         7.6340099869       22.2846441624       11.9119490026
 Si         9.6020211656       21.2465683805       11.4329792361
 Si         5.7536188821       25.6567829696       12.1062011003
 Si         7.6745476189       24.5460010439       11.5766557367
 Si        23.1639822441        2.2333998730       12.1380745842
 Si        25.1158136539        1.1374208897       11.6360892485
 Si        21.2363958085        5.5598525187       12.1472058840
 Si        23.1973755966        4.4693558934       11.6606765023
 Si        19.2594456197        8.8741144011       12.2035055372
 Si        21.2141855554        7.7969876961       11.6464129328
 Si        17.3655109736       12.2518734463       12.1790570025
 Si        19.2867064425       11.1173274908       11.6684739509
 Si        15.4159339041       15.5921210235       12.1416900119
 Si        17.3801155334       14.4889896717       11.7015541926
 Si        13.5337247285       18.8802646127       11.9928658747
 Si        15.4974040885       17.8271314301       11.6491431327
 Si        11.5937224707       22.3543594629       11.9855409803
 Si        13.5619134956       21.1645048997       11.6120367533
 Si         9.6485628711       25.6349838261       12.0724196414
 Si        11.6163250142       24.6196546814       11.5700118683
 Si        27.0641308690        2.2701063088       12.1279032497
 Si        29.0115860598        1.1735621279       11.6431257048
 Si        25.1524007511        5.5805910485       12.1685671002
 Si        27.1278354729        4.5192431176       11.6600837120
 Si        23.1558758099        8.9216875720       12.2000612687
 Si        25.1020052027        7.8122433486       11.6868988656
 Si        21.2315360187       12.2264299695       12.2277423759
 Si        23.1842986366       11.1582338951       11.7094667723
 Si        19.3332727460       15.5993834884       12.2152091674
 Si        21.2728208503       14.4747807819       11.7415701343
 Si        17.4125972401       18.9586170700       12.1653987868
 Si        19.3408669382       17.8387814048       11.7107059827
 Si        15.5047518162       22.3470099150       12.0756117359
 Si        17.4217009579       21.1741680292       11.6140680418
 Si        13.5511521322       25.6873286440       12.0985245633
 Si        15.5010127434       24.5973530156       11.5903429944
  H        11.6177801521       19.8220093990       11.0526812227
  C        11.4813598080       20.6563792992       10.3194154745
  H        11.1654195611       20.3642190265        9.2862513886
  O        12.3141487629       21.6823678107       10.5762679034
     132
 i =        2, E =      -531.2695151261
 Si         0.0639781200        2.2910666271       12.1761238575
 Si         2.0264863347        1.2640003970       11.6468943875
 Si        -1.7890039286        5.6336563518       12.1751918542
 Si         0.1715814223        4.5080116087       11.6570223884
 Si        -3.8402064267        8.9225647637       12.1884036739
 Si        -1.8594085134        7.8792132323       11.6920650742
 Si        -5.7565209073       12.2913989978       12.1984131004
 Si        -3.8601909406       11.1476426927       11.6734906525
 Si        -7.6483037442       15.5927808522       12.2277111937
 Si        -5.6805917622       14.5308780612       11.6993966557
 Si        -9.6097025684       18.9588860274       12.2127684500
 Si        -7.6862258769       17.8215382886       11.7215276372
 Si       -11.5411656707       22.3063400900       12.1367520309
 Si        -9.5785201155       21.1874823012       11.6981770824
 Si       -13.4522117043       25.7419928864       12.1103920261
 Si       -11.5556174050       24.5462554690       11.6424228775
 Si         3.9755613257        2.4073692906       12.1962923105
 Si         5.8079540406        1.1369806271       11.7060787356
 Si         2.1294899955        5.6346857984       12.1999446352
 Si         4.1950216676        4.6801391910       11.7157744231
 Si         0.0818351360        9.0397181624       12.1610683175
 Si         1.9486022015        7.8436848735       11.6405133137
 Si        -1.9071903109       12.2679365764       12.0897681673
 Si         0.0757377489       11.2838039708       11.6049950169
 Si        -3.7022647105       15.6566288006       12.1428323223
 Si        -1.7812280580       14.4848474572       11.6406912719
 Si        -5.7413962693       18.9500976653       12.1310517835
 Si        -3.7882290911       17.8830773948       11.6369993919
 Si        -7.6194864604       22.3027755647       12.1348023775
 Si        -5.6807927215       21.1754309570       11.6383226724
 Si        -9.6169135624       25.6447171123       12.1577792704
 Si        -7.6869927685       24.5272938504       11.6268267764
 Si         7.6504959668        2.3876827016       12.1860135821
 Si         9.5974379823        1.1852635468       11.6350305745
  N         5.7790631939        5.6029352876       11.8259307039
 Si         7.3761275022        4.6658161257       11.6901218957
 Si         3.9089503593        8.8602918204       12.1708156410
 Si         5.7670722764        7.4722543689       11.6338309191
 Si         1.9343661576       12.5942501588       11.9987552440
 Si         3.7953149148       11.1675095148       11.6337936455
 Si         0.3011753648       15.4359427918       11.9193911576
  C         1.9114721981       14.4713723690       11.8552653882
 Si        -1.8828939495       19.1320255237       11.7603026537
 Si         0.0026875561       17.7550382974       11.6464636175
 Si        -3.6013000913       22.1397281612       11.7898293671
  B        -1.9028793935       21.1184696061       11.6331601582
 Si        -5.7688636188       25.6524105299       12.1084661722
 Si        -3.8368236750       24.4530952903       11.6130907545
 Si        11.5365350719        2.2371985935       12.1747311504
 Si        13.4896962379        1.1297788792       11.6721722768
 Si         9.4489973640        5.5930254525       12.2135244931
 Si        11.4134158390        4.4572757620       11.6533458108
 Si         7.6265989710        8.7485959118       12.2200873173
 Si         9.6448353099        7.8001844622       11.6954830125
 Si         5.7472370319       12.1918973864       12.1015277683
 Si         7.6286654877       10.9927533976       11.6188872330
 Si         3.5262105725       15.3945973169       11.9252481510
 Si         5.5878767765       14.4005356290       11.5971303828
 Si         1.8838656744       18.9397781605       11.9835324522
 Si         3.7146997689       17.6805115648       11.5873473627
 Si        -0.2318366329       22.1412247644       11.7828330052
 Si         1.8330232609       21.1806806404       11.5714520649
 Si        -1.9441086585       25.6278657515       12.0899964207
 Si        -0.0581424472       24.4341404428       11.6104511092
 Si        15.4259547338        2.2464197905       12.1704012951
 Si        17.3266636875        1.0795533478       11.6547393254
 Si        13.3917382191        5.5475463437       12.1621264205
 Si        15.3717613572        4.4827323029       11.6215955038
 Si        11.5821341901        8.9133201944       12.2224797391
 Si        13.5070244887        7.7758888070       11.6694199396
 Si         9.5571715700       12.1889749778       12.0877175144
 Si        11.5480079016       11.1247055895       11.6535705144
 Si         7.5491676433       15.5455550345       11.8954699313
 Si         9.5174897235       14.3993161998       11.4899995486
 Si         5.6924006925       18.7993558944       11.8775661020
 Si         7.5515953510       17.6987679260       11.2327744156
 Si         3.8016704003       22.2569062739       12.0212316544
 Si         5.7026055301       21.0882842414       11.4577821454
 Si         1.8719569482       25.5657353822       12.0939611241
 Si         3.8388676540       24.5061979347       11.5817061898
 Si        19.2501580422        2.2362263160       12.1530435505
 Si        21.2045702551        1.1520221303       11.6348955268
 Si        17.3185476395        5.6030014291       12.1622992140
 Si        19.2674602048        4.4786987564       11.6279225704
 Si        15.4758245948        8.8647454704       12.2026790155
  P        17.3615892696        7.7881184550       11.5701826287
 Si        13.5024247718       12.1890432165       12.2006562812
 Si        15.4482711191       11.0953188353       11.6626483499
 Si        11.5072381187       15.4762430714       11.9993600120
 Si        13.5009731111       14.4094760388       11.6571412317
 Al         9.5497053027       18.8184578223       11.7913220319
 Si        11.6483012348       17.6582874014       11.4173550719
 Si         7.6350618006       22.2880907192       11.8743811196
 Si         9.6505660892       21.2067609445       11.5015022241
 Si         5.7527867272       25.6596170254       12.1116036566
 Si         7.6736634029       24.5510400470       11.5617053592
 Si        23.1624094802        2.2349529001       12.1387383951
 Si        25.1132815154        1.1397655735       11.6418998088
 Si        21.2358594552        5.5602127207       12.1483960008
 Si        23.1961290033        4.4690298422       11.6610089101
 Si        19.2595760607        8.8734170340       12.2039793842
 Si        21.2126687118        7.7972176334       11.6440614228
 Si        17.3648290376       12.2525030661       12.1805093583
 Si        19.2852336089       11.1181545141       11.6701448067
 Si        15.4185265316       15.5912624748       12.1434295219
 Si        17.3817589163       14.4866665782       11.7000400009
 Si        13.5399759719       18.8363961095       12.0099724470
 Si        15.5086137552       17.8255529425       11.6370181999
 Si        11.6496667933       22.3942849671       12.0218818723
 Si        13.5691032771       21.1383288543       11.7366180094
 Si         9.6539144587       25.6400195872       12.0727556315
 Si        11.6132202820       24.6481102377       11.5562535476
 Si        27.0639567889        2.2698215073       12.1265366207
 Si        29.0146134981        1.1772305819       11.6478955386
 Si        25.1523276646        5.5799516536       12.1683289102
 Si        27.1271666362        4.5203266577       11.6590949317
 Si        23.1552210440        8.9220584328       12.2008574043
 Si        25.1015074622        7.8124714778       11.6879554577
 Si        21.2311487613       12.2282032102       12.2266801109
 Si        23.1839215728       11.1580815854       11.7097473768
 Si        19.3344924154       15.5985027308       12.2154697360
 Si        21.2721381470       14.4762440600       11.7389900756
 Si        17.4218045361       18.9586444021       12.1823636652
 Si        19.3423931264       17.8399028560       11.7093138346
 Si        15.5399659319       22.3541714412       12.0922798512
 Si        17.4354768066       21.1697314480       11.5969470460
 Si        13.5449332738       25.6940088843       12.0993041760
 Si        15.5008102463       24.5994333288       11.5823938484
  H        11.6081708384       19.8551514063       10.9394587983
  C        11.2313598080       20.7710813981       10.3142814060
  H        11.2308144571       20.3481110870        9.1779617451
  O        12.3800052610       21.7151888842       10.5181578136
     132
 i =        3, E =      -531.2897778127
 Si         0.0672840248        2.2962535718       12.1794941788
 Si         2.0286613567        1.2681057116       11.6447638716
 Si        -1.7898102814        5.6337831164       12.1751819273
 Si         0.1722048318        4.5104820379       11.6579769730
 Si        -3.8400890254        8.9226909186       12.1866044614
 Si        -1.8578159363        7.8789018784       11.6938632581
 Si        -5.7568326293       12.2921411406       12.1983954279
 Si        -3.8601098110       11.1479557409       11.6731079195
 Si        -7.6489126605       15.5927823741       12.2318850587
 Si        -5.6816154304       14.5323340389       11.6997631275
 Si        -9.6064599680       18.9593233983       12.2128392157
 Si        -7.6862285923       17.8198851220       11.7208067253
 Si       -11.5328184168       22.3025062552       12.1328454568
 Si        -9.5703353665       21.1869880232       11.6940794079
 Si       -13.4547323687       25.7440392347       12.1109688285
 Si       -11.5534806362       24.5467463678       11.6450165057
 Si         3.9780604061        2.4086345484       12.1955311540
 Si         5.8106392815        1.1382811989       11.7082330275
 Si         2.1295450681        5.6363488465       12.1979475503
 Si         4.1955044547        4.6804622038       11.7189661043
 Si         0.0837504690        9.0396912985       12.1616180593
 Si         1.9511791367        7.8450809653       11.6408140105
 Si        -1.9060039455       12.2677076377       12.0908954206
 Si         0.0755790548       11.2831376857       11.6041299495
 Si        -3.7016762417       15.6568890548       12.1400218765
 Si        -1.7805331067       14.4842639445       11.6393285354
 Si        -5.7422752285       18.9500068424       12.1226939197
 Si        -3.7881446323       17.8831604646       11.6326354528
 Si        -7.6156437847       22.3035646156       12.1346924318
 Si        -5.6800573220       21.1761442072       11.6353894490
 Si        -9.6141480533       25.6471260107       12.1584856128
 Si        -7.6884813864       24.5266648078       11.6223447750
 Si         7.6515437276        2.3887289036       12.1913081318
 Si         9.5960662495        1.1847600683       11.6392540658
  N         5.7774702136        5.6017083169       11.8221680139
 Si         7.3761051185        4.6649829869       11.6809308304
 Si         3.9106054784        8.8608288223       12.1768360046
 Si         5.7662186536        7.4725465924       11.6255821179
 Si         1.9338961388       12.5943411921       11.9941279698
 Si         3.7927140375       11.1666871079       11.6389419083
 Si         0.3022556502       15.4361844498       11.9148257694
  C         1.9110986221       14.4712872213       11.8536244318
 Si        -1.8823014376       19.1303484348       11.7739031113
 Si         0.0019384323       17.7545301422       11.6437599203
 Si        -3.6029474412       22.1404046088       11.8004489274
  B        -1.9025619046       21.1178462293       11.6596938195
 Si        -5.7698163789       25.6508867579       12.1026205870
 Si        -3.8376008301       24.4528436815       11.6088644648
 Si        11.5366957419        2.2370291472       12.1738200447
 Si        13.4897715791        1.1313137325       11.6713048484
 Si         9.4468626556        5.5934284630       12.2161109875
 Si        11.4122390251        4.4580977000       11.6566849397
 Si         7.6255067557        8.7464953077       12.2210331503
 Si         9.6423330069        7.7992774318       11.6887037911
 Si         5.7459523954       12.1875321845       12.1000600634
 Si         7.6280094929       10.9896047470       11.6219586483
 Si         3.5256461991       15.3939572134       11.9259797384
 Si         5.5816635547       14.3930374474       11.5973512940
 Si         1.8816540975       18.9399008434       11.9775461825
 Si         3.7113136151       17.6794005215       11.5868539026
 Si        -0.2295905642       22.1417234468       11.7902306083
 Si         1.8333040488       21.1806045216       11.5674045290
 Si        -1.9440257386       25.6283078111       12.0830108980
 Si        -0.0567816490       24.4348880844       11.6075702238
 Si        15.4267625408        2.2456696198       12.1728536260
 Si        17.3271997723        1.0794245136       11.6543173808
 Si        13.3921110141        5.5481509114       12.1620458516
 Si        15.3714455086        4.4817994018       11.6211349304
 Si        11.5786921158        8.9126852191       12.2220682852
 Si        13.5060550555        7.7780475067       11.6726292266
 Si         9.5566181658       12.1818476836       12.0902700736
 Si        11.5494182116       11.1226591177       11.6532460185
 Si         7.5429512894       15.5373071079       11.9004233238
 Si         9.5123069416       14.3875295114       11.4850883794
 Si         5.6881461960       18.7905996178       11.8779216058
 Si         7.5442900805       17.6889637069       11.2219627466
 Si         3.7987907634       22.2593265094       12.0217414524
 Si         5.6996840069       21.0862048899       11.4517764589
 Si         1.8730193193       25.5658280139       12.0905888466
 Si         3.8405091206       24.5070527608       11.5826224228
 Si        19.2507892116        2.2351032244       12.1531949871
 Si        21.2045947648        1.1523374685       11.6351228776
 Si        17.3189242394        5.6038683540       12.1622497193
 Si        19.2676463434        4.4775538738       11.6278426299
 Si        15.4754787065        8.8653525358       12.2021406908
  P        17.3604391336        7.7885766928       11.5688530374
 Si        13.5058930073       12.1805174999       12.2006047732
 Si        15.4505504857       11.0945938788       11.6621134606
 Si        11.5073151347       15.4600846685       12.0118735317
 Si        13.5049697526       14.3986587235       11.6583846568
 Al         9.5377438176       18.7810324745       11.8620277825
 Si        11.6285382948       17.6512253636       11.4411163317
 Si         7.6515852123       22.2854942837       11.8258580480
 Si         9.7475513638       21.1730104870       11.5463945092
 Si         5.7494074878       25.6620358717       12.1145832969
 Si         7.6701485092       24.5549379496       11.5469674422
 Si        23.1594415604        2.2369268865       12.1383810643
 Si        25.1105699829        1.1482462853       11.6468678081
 Si        21.2356544792        5.5604930852       12.1494465277
 Si        23.1956907112        4.4684869615       11.6618572913
 Si        19.2585785679        8.8743162463       12.2041263927
 Si        21.2115497226        7.7971661582       11.6416065790
 Si        17.3643147213       12.2519138432       12.1804575393
 Si        19.2841062347       11.1193275720       11.6729225977
 Si        15.4233845974       15.5828779033       12.1454466019
 Si        17.3858377753       14.4826623281       11.6990571446
 Si        13.5311936001       18.8184014817       12.0349148965
 Si        15.5183227637       17.8217368138       11.6207221411
 Si        11.6830881171       22.4029844490       12.0697314756
 Si        13.5656372123       21.1564930540       11.8190235942
 Si         9.6477805034       25.6519611503       12.0787719568
 Si        11.6121596209       24.6653694394       11.5414381597
 Si        27.0621950262        2.2728031773       12.1249376625
 Si        29.0173729313        1.1863508414       11.6497126519
 Si        25.1522139390        5.5790752720       12.1673742664
 Si        27.1270887338        4.5211731600       11.6592540406
 Si        23.1546454021        8.9225544062       12.2020326927
 Si        25.1012940259        7.8119213702       11.6888017808
 Si        21.2296210233       12.2300593722       12.2244724473
 Si        23.1828082288       11.1588276939       11.7101082144
 Si        19.3353987526       15.5958550803       12.2150558611
 Si        21.2725734956       14.4772932643       11.7380484632
 Si        17.4321284349       18.9629877334       12.2021966354
 Si        19.3474287532       17.8373972775       11.7068736945
 Si        15.5447325569       22.3409276348       12.0956677550
 Si        17.4364644783       21.1762899425       11.5844214609
 Si        13.5527811068       25.7048710858       12.1074338728
 Si        15.5021648002       24.5818972104       11.5804366647
  H        11.5120485866       19.8928924186       10.8356364360
  C        11.2518494425       20.7575765225       10.2172279315
  H        11.1599877545       20.4236040553        9.1965327207
  O        12.4000147270       21.7386868103       10.4741746186
     132
 i =        4, E =      -531.2954773488
 Si         0.0700406599        2.3001778325       12.1823338878
 Si         2.0290589112        1.2671939719       11.6429650012
 Si        -1.7894932346        5.6353055287       12.1758820319
 Si         0.1726949698        4.5129723561       11.6588597266
 Si        -3.8402401645        8.9225465996       12.1850048423
 Si        -1.8570824399        7.8794471371       11.6952973834
 Si        -5.7578985751       12.2926313240       12.1978812635
 Si        -3.8596623623       11.1478601988       11.6733430925
 Si        -7.6489303538       15.5924038755       12.2351255989
 Si        -5.6810376622       14.5324193768       11.6999251672
 Si        -9.6047388610       18.9566018459       12.2129710209
 Si        -7.6853431392       17.8193510682       11.7195167352
 Si       -11.5298307834       22.3048190861       12.1283707969
 Si        -9.5672636538       21.1857105024       11.6900293183
 Si       -13.4561950249       25.7410281008       12.1081307202
 Si       -11.5520947675       24.5496125916       11.6485912036
 Si         3.9793202116        2.4084350640       12.1955438837
 Si         5.8133322205        1.1391239156       11.7100793487
 Si         2.1299006520        5.6389196164       12.1963421637
 Si         4.1964836816        4.6809597077       11.7205682356
 Si         0.0845452862        9.0394888335       12.1614289458
 Si         1.9532213455        7.8465772066       11.6421246124
 Si        -1.9058342694       12.2680283074       12.0915681386
 Si         0.0755214658       11.2820071606       11.6034700310
 Si        -3.7014307294       15.6572917281       12.1371894548
 Si        -1.7806547730       14.4840198722       11.6381399150
 Si        -5.7413547021       18.9490485278       12.1169075183
 Si        -3.7865182520       17.8833325562       11.6304443168
 Si        -7.6127226188       22.3044091565       12.1350879534
 Si        -5.6774715761       21.1761894446       11.6326646687
 Si        -9.6142885113       25.6471761271       12.1589794401
 Si        -7.6892514150       24.5288631087       11.6187336766
 Si         7.6521643026        2.3893951036       12.1942004780
 Si         9.5951778630        1.1851458047       11.6417542444
  N         5.7769605235        5.6014560915       11.8184458280
 Si         7.3766113593        4.6652404771       11.6761473561
 Si         3.9112659584        8.8598026945       12.1799410020
 Si         5.7651157175        7.4731380404       11.6209944578
 Si         1.9330553703       12.5935969815       11.9914728715
 Si         3.7904953672       11.1640284739       11.6422259392
 Si         0.3015126138       15.4364975112       11.9122036710
  C         1.9086546815       14.4700169888       11.8519281854
 Si        -1.8831331337       19.1304688079       11.7849915733
 Si        -0.0011856501       17.7537128206       11.6419877797
 Si        -3.6015095741       22.1408166409       11.8099223215
  B        -1.9025594274       21.1172256609       11.6745703143
 Si        -5.7689561965       25.6497096068       12.0983453812
 Si        -3.8374935295       24.4519348104       11.6067590408
 Si        11.5374456843        2.2374772915       12.1733197728
 Si        13.4898938898        1.1320814099       11.6703193159
 Si         9.4453682181        5.5941279366       12.2164317823
 Si        11.4114664266        4.4591789799       11.6593843887
 Si         7.6249638106        8.7427246397       12.2204854946
 Si         9.6407411673        7.7983968043       11.6852149924
 Si         5.7443564391       12.1835011247       12.1011278500
 Si         7.6273291776       10.9849064551       11.6234333637
 Si         3.5233417373       15.3913420300       11.9267889210
 Si         5.5792956752       14.3883965932       11.5953744479
 Si         1.8788552619       18.9403961548       11.9746969470
 Si         3.7106787972       17.6786047094       11.5851103076
 Si        -0.2304715699       22.1418689442       11.7987074277
 Si         1.8339993135       21.1831672913       11.5634592660