     132
 i =        1, E =      -531.2841265426
 Si         0.0598700867        2.2881680676       12.1755744268
 Si         2.0275147630        1.2621023383       11.6460456396
 Si        -1.7878972393        5.6344367209       12.1747378333
 Si         0.1703621251        4.5085464602       11.6584971892
 Si        -3.8396506626        8.9209898179       12.1917480788
 Si        -1.8619377211        7.8792722595       11.6898882316
 Si        -5.7588417676       12.2914707105       12.1965423404
 Si        -3.8575877753       11.1456147632       11.6738484734
 Si        -7.6512767230       15.5898813182       12.2189918667
 Si        -5.6775289088       14.5274230126       11.6899336964
 Si        -9.6121123949       18.9558306442       12.2124640382
 Si        -7.6892125633       17.8233651766       11.7142757918
 Si       -11.5473058056       22.3110201884       12.1448017216
 Si        -9.5885286023       21.1904163828       11.6994330232
 Si       -13.4516326165       25.7360114506       12.1122024421
 Si       -11.5550277798       24.5489978932       11.6363449151
 Si         3.9796235341        2.4066361626       12.1969689605
 Si         5.8035270417        1.1367447676       11.7056219513
 Si         2.1312972862        5.6344646168       12.1995567344
 Si         4.1926699898        4.6798608012       11.7067396717
 Si         0.0779660976        9.0393270298       12.1579382225
 Si         1.9449616779        7.8384013404       11.6426132658
 Si        -1.9104638041       12.2701848742       12.0883281222
 Si         0.0786679507       11.2829076669       11.6057279283
 Si        -3.7052295595       15.6506835695       12.1478921187
 Si        -1.7778521046       14.4882379722       11.6402264208
 Si        -5.7486505423       18.9462851604       12.1459974856
 Si        -3.7797197067       17.8901938487       11.6935792357
 Si        -7.6233457856       22.2995723328       12.1349273483
 Si        -5.6698553222       21.1792639371       11.6869034240
 Si        -9.6200660898       25.6422515426       12.1595324062
 Si        -7.6864539785       24.5328670695       11.6357016890
 Si         7.6461892232        2.3823300593       12.1738561413
 Si         9.5962128788        1.1895885484       11.6209779255
  N         5.7806375949        5.6046477861       11.8252390389
 Si         7.3775274296        4.6700973906       11.7045410685
 Si         3.9025988501        8.8560948152       12.1591110449
 Si         5.7695248526        7.4714570807       11.6496649151
 Si         1.9333621076       12.5954437898       12.0032436402
 Si         3.7989717288       11.1691922246       11.6191395969
 Si         0.3023826530       15.4352460844       11.9456745959
  C         1.9106289388       14.4701004836       11.8577186635
 Si        -1.8812832085       19.1271612544       11.9465086124
 Si        -0.0027072872       17.7530285594       11.7095397310
 Si        -3.6042594331       22.1433543090       11.9670634950
  B        -1.9023010383       21.1195935970       11.8313860461
 Si        -5.7668035879       25.6563992503       12.1241842844
 Si        -3.8368771629       24.4463936751       11.6785739710
 Si        11.5385885991        2.2384557548       12.1750604087
 Si        13.4863579639        1.1320861987       11.6659006406
 Si         9.4521306898        5.5949239734       12.2080045325
 Si        11.4124479308        4.4557655794       11.6488464082
 Si         7.6328294387        8.7492247505       12.2112488601
 Si         9.6489102715        7.8014034203       11.7099583372
 Si         5.7482155404       12.1959514546       12.1077881612
 Si         7.6268001429       10.9947174883       11.6164529157
 Si         3.5213818972       15.3981535595       11.9193057614
 Si         5.5894548700       14.4041331360       11.5935848329
 Si         1.8909923807       18.9367601542       12.0021194863
 Si         3.7152320322       17.6717084976       11.5811063189
 Si        -0.2285056531       22.1528494080       11.9606804746
 Si         1.8117539371       21.1770915429       11.6028404541
 Si        -1.9394960346       25.6338468878       12.1096213471
 Si        -0.0668781905       24.4310792137       11.6630851185
 Si        15.4279070611        2.2455256306       12.1654840142
 Si        17.3291424325        1.0812977277       11.6486224011
 Si        13.3871187000        5.5485238979       12.1604760917
 Si        15.3688756046        4.4822428634       11.6229814653
 Si        11.5857536297        8.9138117582       12.2198401668
 Si        13.5082234552        7.7752606730       11.6664128577
 Si         9.5572148224       12.1867854435       12.0876827708
 Si        11.5473540908       11.1234598815       11.6565865554
 Si         7.5515965301       15.5607787727       11.8935346974
 Si         9.5269997950       14.4097275672       11.4904337269
 Si         5.6952815752       18.7932637879       11.8835509031
 Si         7.5900752177       17.7340415927       11.2599105873
 Si         3.8361452322       22.2381579565       12.0224872970
 Si         5.7484780595       21.0381517384       11.2563112640
 Si         1.8710413087       25.5696875095       12.1023681805
 Si         3.8218687458       24.5390181006       11.5370665760
 Si        19.2494880086        2.2345842845       12.1493053822
 Si        21.2088240073        1.1651174114       11.6341014679
 Si        17.3238265131        5.6038702177       12.1658574706
 Si        19.2674990028        4.4765222867       11.6276969679
 Si        15.4732954759        8.8602524552       12.1988472568
  P        17.3630310965        7.7891838951       11.5740289224
 Si        13.5007588842       12.1942491099       12.1991696847
 Si        15.4497105916       11.0981188007       11.6695148573
 Si        11.5181206376       15.5306169968       11.9755915907
 Si        13.4976222192       14.4147075467       11.6502951281
 Al         9.6159544168       18.9105113208       11.6556474552
 Si        11.6540697098       17.7326685394       11.3864783453
 Si         7.6524242961       22.2901900351       11.8152467394
 Si         9.6424303747       21.2544201409       11.3601504325
 Si         5.7511540522       25.6758423850       12.0890938593
 Si         7.6907410244       24.5746284351       11.5546333344
 Si        23.1677287023        2.2329890210       12.1354383610
 Si        25.1135838608        1.1397706264       11.6340456750
 Si        21.2373712284        5.5587212290       12.1473016643
 Si        23.1965370565        4.4675897640       11.6612184188
 Si        19.2581311378        8.8771457708       12.2034113617
 Si        21.2156840908        7.7959039637       11.6502357347
 Si        17.3664189855       12.2505041681       12.1767350642
 Si        19.2881170576       11.1173807867       11.6677609322
 Si        15.4190749554       15.5869559586       12.1423608044
 Si        17.3825218077       14.4881400116       11.7024510430
 Si        13.5102312189       18.9220983721       11.9821773567
 Si        15.4834931137       17.8289053257       11.6568161826
 Si        11.5673540374       22.3282549354       11.9509531156
 Si        13.5211210667       21.1849063676       11.5015246742
 Si         9.6497528397       25.6401521100       12.0731542359
 Si        11.6180622692       24.5796372837       11.5862283329
 Si        27.0602524251        2.2689399830       12.1310239827
 Si        29.0093260502        1.1744154103       11.6380692319
 Si        25.1500182372        5.5810298698       12.1687685579
 Si        27.1285224565        4.5174082522       11.6616826666
 Si        23.1567429996        8.9221879464       12.2008488309
 Si        25.1031281275        7.8122731424       11.6858221472
 Si        21.2308892042       12.2244075438       12.2275384672
 Si        23.1842587679       11.1599818357       11.7091141573
 Si        19.3316521801       15.5985092091       12.2125594589
 Si        21.2747671839       14.4727255313       11.7456374967
 Si        17.4080396779       18.9580045123       12.1603692073
 Si        19.3471391505       17.8345520706       11.7120518151
 Si        15.4494563499       22.3195381277       12.0552401398
 Si        17.4076738853       21.1898462017       11.6260730110
 Si        13.5525375260       25.6830837471       12.1021443019
 Si        15.4999354717       24.5858977093       11.5966104979
  H         6.6757630829       22.1214592143       14.0007092084
  C         5.7910655885       22.6211360905       13.5606218637
  H         5.8789589356       23.7003665262       13.3249025222
  O         4.5968119899       22.1278077027       13.5692605458
     132
 i =        2, E =      -531.2990519653
 Si         0.0584932920        2.2878216578       12.1755004377
 Si         2.0272512938        1.2624750055       11.6464909570
 Si        -1.7880480383        5.6341568805       12.1742697741
 Si         0.1706929799        4.5081276929       11.6589265567
 Si        -3.8400338851        8.9211334560       12.1919525856
 Si        -1.8611669855        7.8786388526       11.6892006817
 Si        -5.7591383768       12.2921737623       12.1967869707
 Si        -3.8565172711       11.1457434809       11.6740117874
 Si        -7.6506601839       15.5905988924       12.2185327814
 Si        -5.6770406565       14.5279091199       11.6908300561
 Si        -9.6118462855       18.9553092034       12.2124709206
 Si        -7.6881735774       17.8235361335       11.7148539134
 Si       -11.5488545647       22.3104873245       12.1451745940
 Si        -9.5886202112       21.1904983134       11.6999863264
 Si       -13.4521517285       25.7361251081       12.1122894391
 Si       -11.5550317191       24.5487903568       11.6354572692
 Si         3.9787668865        2.4065840570       12.1982584894
 Si         5.8025591229        1.1371083427       11.7043155173
 Si         2.1308856346        5.6344690739       12.2009328793
 Si         4.1923940763        4.6791250334       11.7020498862
 Si         0.0783441862        9.0396941982       12.1579969352
 Si         1.9449876076        7.8371765471       11.6424764975
 Si        -1.9096880421       12.2708982808       12.0876690147
 Si         0.0786990980       11.2831194982       11.6067098226
 Si        -3.7043741497       15.6511865069       12.1464656056
 Si        -1.7780331880       14.4874988630       11.6417726586
 Si        -5.7481263735       18.9469976381       12.1447938643
 Si        -3.7816541004       17.8888570730       11.6926140536
 Si        -7.6233784822       22.2998153676       12.1341316494
 Si        -5.6715064744       21.1790956374       11.6863522722
 Si        -9.6199044667       25.6423871671       12.1593866374
 Si        -7.6855456771       24.5330626509       11.6369669048
 Si         7.6471387519        2.3801885106       12.1729971296
 Si         9.5961999147        1.1899244298       11.6193076769
  N         5.7801016838        5.6052382999       11.8274157332
 Si         7.3766932379        4.6705681144       11.7070267133
 Si         3.9014090207        8.8576644877       12.1588425148
 Si         5.7690688396        7.4714781677       11.6530949303
 Si         1.9345942250       12.5929089300       12.0036374545
 Si         3.7988974652       11.1682799225       11.6157495126
 Si         0.3016130663       15.4330501338       11.9451191082
  C         1.9080755699       14.4656716865       11.8586077294
 Si        -1.8814521383       19.1317781500       11.9444776675
 Si         0.0016023375       17.7515671216       11.7082867091
 Si        -3.6049599834       22.1425820225       11.9658493009
  B        -1.9031093276       21.1222663686       11.8465681512
 Si        -5.7670151351       25.6573931249       12.1253474611
 Si        -3.8412126500       24.4470482183       11.6760367270
 Si        11.5376766937        2.2377220063       12.1747735527
 Si        13.4853112025        1.1351060484       11.6660883398
 Si         9.4529945511        5.5947746596       12.2076512998
 Si        11.4135204640        4.4546030099       11.6499477444
 Si         7.6327381788        8.7499149827       12.2104894436
 Si         9.6488436971        7.8024035581       11.7098100627
 Si         5.7466774756       12.1948679576       12.1062022634
 Si         7.6269938388       10.9969086947       11.6189688461
 Si         3.5176298163       15.3968658287       11.9188691531
 Si         5.5912587791       14.4035372827       11.5950071930
 Si         1.8889176260       18.9517394464       12.0034807514
 Si         3.7175196335       17.6687475544       11.5780275198
 Si        -0.2187364271       22.1420036908       11.9686027626
 Si         1.8336363773       21.1887161390       11.5966325346
 Si        -1.9428441241       25.6350504177       12.1101091541
 Si        -0.0711170628       24.4330259050       11.6553473852
 Si        15.4255744085        2.2493734234       12.1649536378
 Si        17.3248989362        1.0824211078       11.6494116586
 Si        13.3879445239        5.5476964073       12.1590334647
 Si        15.3685391137        4.4832226461       11.6244960313
 Si        11.5868171685        8.9145872301       12.2203864605
 Si        13.5081730271        7.7744752373       11.6663366771
 Si         9.5583320126       12.1864379520       12.0850225002
 Si        11.5471211554       11.1239571724       11.6566652847
 Si         7.5566543899       15.5497411438       11.8942942849
 Si         9.5287075378       14.4073231400       11.4942155097
 Si         5.6958231941       18.8119623222       11.8729022659
 Si         7.5790767659       17.7213485720       11.2648410949
 Si         3.8881151705       22.2191147920       12.0428288776
 Si         5.7593041143       21.0278348833       11.0930539335
 Si         1.8826525416       25.5668101619       12.1067313710
 Si         3.8207866456       24.5353113555       11.4851050547
 Si        19.2478756020        2.2389434140       12.1505434933
 Si        21.2124561445        1.1790750170       11.6306596752
 Si        17.3231312908        5.6037219225       12.1650440348
 Si        19.2661776916        4.4801296104       11.6277514467
 Si        15.4738771045        8.8599734166       12.1984531501
  P        17.3636997442        7.7880864790       11.5748548276
 Si        13.4998434728       12.1954160743       12.1993942497
 Si        15.4494945958       11.0985163289       11.6697198480
 Si        11.5176636004       15.5282596412       11.9743703814
 Si        13.4968554052       14.4154050399       11.6506227586
 Al         9.6173849754       18.9064761698       11.6578032856
 Si        11.6636754452       17.7266777192       11.3837956354
 Si         7.6089117487       22.3036909362       11.6971336519
 Si         9.6452497908       21.2625051737       11.3740845526
 Si         5.7379017588       25.6831911545       12.0511271846
 Si         7.6978840272       24.6047503046       11.5053119869
 Si        23.1723384340        2.2404622192       12.1388653059
 Si        25.1177428727        1.1445580687       11.6321719173
 Si        21.2370180279        5.5583255781       12.1460485501
 Si        23.1986644619        4.4725296353       11.6617662347
 Si        19.2579696530        8.8766468600       12.2028266058
 Si        21.2157445533        7.7952356554       11.6509781033
 Si        17.3671331477       12.2509046904       12.1771615077
 Si        19.2879958577       11.1161977890       11.6682231453
 Si        15.4182752837       15.5872462925       12.1411985618
 Si        17.3825514112       14.4884104260       11.7021020158
 Si        13.5112158345       18.9260107305       11.9828209760
 Si        15.4839460292       17.8279639773       11.6571760841
 Si        11.5702242767       22.3267915889       11.9640485536
 Si        13.5215566786       21.1877246925       11.5014007858
 Si         9.6509549403       25.6423134027       12.0707531013
 Si        11.6222989941       24.5787927239       11.5824110562
 Si        27.0622026387        2.2713774756       12.1327180347
 Si        29.0101072495        1.1753753288       11.6360114718
 Si        25.1513901754        5.5819312734       12.1681583927
 Si        27.1284892418        4.5178686198       11.6631467740
 Si        23.1567285543        8.9215803281       12.2004622406
 Si        25.1030031214        7.8117784978       11.6860054040
 Si        21.2305688470       12.2249933343       12.2269128619
 Si        23.1846619141       11.1593150078       11.7089691996
 Si        19.3310584531       15.5986328932       12.2131304846
 Si        21.2754828647       14.4723523966       11.7458721056
 Si        17.4074445571       18.9589073676       12.1602077895
 Si        19.3465076339       17.8345669931       11.7113355231
 Si        15.4492868781       22.3185858098       12.0537070250
 Si        17.4067365231       21.1905265594       11.6257449504
 Si        13.5534608992       25.6840580048       12.1039302507
 Si        15.5004512402       24.5841925488       11.5965677290
  H         6.6139975644       22.1147282279       14.2134986469
  C         5.8238448070       22.5686737758       13.5201897970
  H         5.9197797726       23.6610008042       13.3816366679
  O         4.5203274466       22.1566294124       13.7175689830
     132
 i =        3, E =      -531.3039088513
 Si         0.0581211932        2.2876529452       12.1752752093
 Si         2.0265881498        1.2620588707       11.6463227564
 Si        -1.7878730500        5.6346551897       12.1739630010
 Si         0.1705015076        4.5078154637       11.6589831452
 Si        -3.8398918729        8.9213760821       12.1914987296
 Si        -1.8608491878        7.8785618348       11.6895005862
 Si        -5.7592104487       12.2923100973       12.1967384663
 Si        -3.8566155353       11.1455947686       11.6743367648
 Si        -7.6503721661       15.5908471551       12.2183012435
 Si        -5.6772455308       14.5277688080       11.6912098643
 Si        -9.6117971360       18.9550116816       12.2120742310
 Si        -7.6884352635       17.8235404056       11.7152347535
 Si       -11.5492712876       22.3109175578       12.1449008442
 Si        -9.5887607165       21.1899551429       11.7004301837
 Si       -13.4520317565       25.7358746729       12.1119623634
 Si       -11.5549266113       24.5488868241       11.6355542782
 Si         3.9786639909        2.4063519716       12.1986203203
 Si         5.8031235441        1.1366928256       11.7043312675
 Si         2.1301765378        5.6346791280       12.2012884307
 Si         4.1926198943        4.6790540896       11.7016963397
 Si         0.0779639296        9.0394008385       12.1576488527
 Si         1.9450424894        7.8373564545       11.6427947617
 Si        -1.9095706068       12.2703005368       12.0879216784
 Si         0.0786685767       11.2822996215       11.6069709076
 Si        -3.7050959399       15.6517913669       12.1461526334
 Si        -1.7781250002       14.4874307141       11.6417177215
 Si        -5.7487155610       18.9462978760       12.1443509007
 Si        -3.7810291260       17.8899874528       11.6922589614
 Si        -7.6238945400       22.3001075009       12.1341005603
 Si        -5.6712887040       21.1787264298       11.6854660959
 Si        -9.6202497241       25.6423276836       12.1588851762
 Si        -7.6859690927       24.5334601806       11.6374282943
 Si         7.6468849374        2.3802315934       12.1725418974
 Si         9.5954285549        1.1902176852       11.6183694551
  N         5.7801402285        5.6054469863       11.8281201205
 Si         7.3769510696        4.6706424916       11.7073698802
 Si         3.9010607822        8.8577076511       12.1587908065
 Si         5.7690385427        7.4717385411       11.6542391887
 Si         1.9346653457       12.5918282684       12.0035178031
 Si         3.7988189622       11.1669337207       11.6141995525
 Si         0.3023323701       15.4342668431       11.9451707756
  C         1.9084495997       14.4645827272       11.8583840191
 Si        -1.8812421216       19.1317627059       11.9441737568
 Si         0.0041320713       17.7550892105       11.7083107523
 Si        -3.6030350658       22.1415614196       11.9668143841
  B        -1.8985660518       21.1224558323       11.8512778278
 Si        -5.7685886684       25.6582919518       12.1259746157
 Si        -3.8418102812       24.4470365095       11.6745263504
 Si        11.5363664850        2.2382100159       12.1751997603
 Si        13.4845071947        1.1352718241       11.6652731732
 Si         9.4527919359        5.5953339463       12.2075688365
 Si        11.4130491220        4.4547892649       11.6504814874
 Si         7.6331401242        8.7495465890       12.2103815608
 Si         9.6492765359        7.8025152428       11.7095562082
 Si         5.7457028155       12.1932906550       12.1054109621
 Si         7.6265125437       10.9967692320       11.6200645909
 Si         3.5172525067       15.3987904416       11.9198986349
 Si         5.5900130890       14.4022806480       11.5958765885
 Si         1.8893951162       18.9553105835       12.0011245230
 Si         3.7175892908       17.6742759143       11.5773053637
 Si        -0.2122506964       22.1419531913       11.9705228311
 Si         1.8383264322       21.1882986521       11.5958027739
 Si        -1.9409326579       25.6337544994       12.1101466645
 Si        -0.0670077046       24.4317525293       11.6554758549
 Si        15.4258526225        2.2498528212       12.1663009040
 Si        17.3257839101        1.0782898803       11.6508140754
 Si        13.3874399115        5.5483667822       12.1587562281
 Si        15.3684071620        4.4846785228       11.6239374518
 Si        11.5868349322        8.9143358543       12.2205975293
 Si        13.5083940135        7.7748874076       11.6663897992
 Si         9.5591140216       12.1848886367       12.0849970115
 Si        11.5484637691       11.1233660264       11.6563681528
 Si         7.5567651787       15.5467694836       11.8951975815
 Si         9.5309807684       14.4055873238       11.4944453116
 Si         5.6957640526       18.8225598794       11.8596103958
 Si         7.5774345412       17.7203746704       11.2693695078
 Si         3.8876775797       22.2345427884       12.0500367510
 Si         5.7335751240       21.0423183595       11.0866089119
 Si         1.8898215285       25.5607839591       12.1022186684
 Si         3.8246944982       24.5283616397       11.4706933101
 Si        19.2465538755        2.2412736206       12.1505548097
 Si        21.2115689999        1.1808031858       11.6309880817
 Si        17.3229894798        5.6052342626       12.1653291641
 Si        19.2656628728        4.4816374436       11.6276433582
 Si        15.4737701700        8.8602451731       12.1978931675
  P        17.3635639478        7.7887974308       11.5755709340
 Si        13.5001801358       12.1952562755       12.1996354743
 Si        15.4494432950       11.0983619817       11.6699738081
 Si        11.5195055803       15.5289316054       11.9741170737
 Si        13.4971145347       14.4145145427       11.6506009006
 Al         9.6172769091       18.9068968092       11.6540711769
 Si        11.6639119025       17.7271469460       11.3846616257
 Si         7.5900000365       22.3116792120       11.6854595903
 Si         9.6359769355       21.2687258696       11.3826366217
 Si         5.7302072573       25.6798011789       12.0281244959
 Si         7.6931949929       24.6127692704       11.4806315633
 Si        23.1734928976        2.2430623204       12.1408611097
 Si        25.1199063898        1.1465609388       11.6307552625
 Si        21.2363445835        5.5596573175       12.1455223543
 Si        23.1998394247        4.4750124584       11.6614571672
 Si        19.2579350653        8.8761723158       12.2022514248
 Si        21.2158984459        7.7957910411       11.6514237420
 Si        17.3668348340       12.2506540011       12.1774159701
 Si        19.2877700535       11.1160065226       11.6684339778
 Si        15.4180236641       15.5876674992       12.1408302580
 Si        17.3826849373       14.4882800187       11.7017657551
 Si        13.5118204999       18.9254502593       11.9827613465
 Si        15.4844573992       17.8283721663       11.6572463469
 Si        11.5685157491       22.3274686892       11.9671713909
 Si        13.5210501911       21.1878933465       11.5021179262
 Si         9.6509928460       25.6412684539       12.0683040230
 Si        11.6244378362       24.5785097100       11.5798738233
 Si        27.0638707783        2.2725272003       12.1341861717
 Si        29.0110064128        1.1752511565       11.6352577418
 Si        25.1526220829        5.5835561067       12.1687685880
 Si        27.1291754783        4.5184291954       11.6633903824
 Si        23.1566602766        8.9215144895       12.2002799618
 Si        25.1033271063        7.8127679107       11.6859540202
 Si        21.2306524324       12.2248893207       12.2264029353
 Si        23.1852096856       11.1590833700       11.7091878559
 Si        19.3308062237       15.5990561799       12.2132498586
 Si        21.2759012331       14.4724525990       11.7461040942
 Si        17.4075601484       18.9586743139       12.1601217487
 Si        19.3466247197       17.8349127288       11.7114671981
 Si        15.4498007014       22.3187720407       12.0543137823
 Si        17.4068837784       21.1901238044       11.6251842545
 Si        13.5541106173       25.6849853304       12.1045466103
 Si        15.5005197535       24.5846556591       11.5971002125
  H         6.5928784680       22.1011830081       14.2178573947
  C         5.8240339829       22.5693228536       13.6016476384
  H         5.9451124213       23.6404727568       13.3822002114
  O         4.5408063271       22.1236115708       13.7057939324
     132
 i =        4, E =      -531.3075378767
 Si         0.0583519843        2.2876159327       12.1750216930
 Si         2.0262578895        1.2615763891       11.6462285167
 Si        -1.7870712896        5.6354820157       12.1736691945
 Si         0.1705512592        4.5077873850       11.6589741321
 Si        -3.8392822119        8.9221289842       12.1909489164
 Si        -1.8606898048        7.8787128863       11.6897087876
 Si        -5.7590686545       12.2922499641       12.1968803707
 Si        -3.8566416009       11.1459177089       11.6748574375
 Si        -7.6502651179       15.5906422265       12.2180845624
 Si        -5.6772657093       14.5276985791       11.6916847083
 Si        -9.6119926717       18.9548013866       12.2117640988
 Si        -7.6887898085       17.8233376589       11.7154301045
 Si       -11.5497256234       22.3113231156       12.1445453997
 Si        -9.5890978708       21.1897386839       11.7011019875
 Si       -13.4516325471       25.7357284091       12.1113817971
 Si       -11.5549785968       24.5488312041       11.6353900416
 Si         3.9785081761        2.4063673507       12.1988685263
 Si         5.8030501267        1.1364220165       11.7042695810
 Si         2.1297012577        5.6344275022       12.2017711383
 Si         4.1925302619        4.6789010433       11.7016439312
 Si         0.0776512664        9.0387835968       12.1572706460
 Si         1.9448442320        7.8369830023       11.6433385641
 Si        -1.9093850150       12.2700751411       12.0884074006
 Si         0.0785697789       11.2812654471       11.6073020819
 Si        -3.7055753346       15.6525984782       12.1452917159
 Si        -1.7778749072       14.4880598170       11.6420075610
 Si        -5.7491504183       18.9460358300       12.1435337623
 Si        -3.7798098124       17.8917662792       11.6916034545
 Si        -7.6238223301       22.2999013656       12.1338203376
 Si        -5.6696739451       21.1787475427       11.6843955877
 Si        -9.6209866433       25.6423481347       12.1583046940
 Si        -7.6867312350       24.5337914480       11.6379566506
 Si         7.6459416102        2.3807773443       12.1718722963
 Si         9.5943520603        1.1907798405       11.6164275880
  N         5.7797532840        5.6056515973       11.8290652571
 Si         7.3769985915        4.6710298258       11.7081966087
 Si         3.9007284628        8.8570113625       12.1589730929
 Si         5.7691590469        7.4718896246       11.6564538524
 Si         1.9347026274       12.5914028665       12.0032507254
 Si         3.7981382920       11.1644120134       11.6108786180
 Si         0.3037580632       15.4359523132       11.9449490089
  C         1.9100631793       14.4644360326       11.8582654817
 Si        -1.8800625213       19.1325586628       11.9442861954
 Si         0.0076528972       17.7603720567       11.7083064473
 Si        -3.5995245769       22.1406535124       11.9684687475
  B        -1.8915219010       21.1233886137       11.8593616588
 Si        -5.7695441752       25.6590548169       12.1270730759
 Si        -3.8408712843       24.4467390123       11.6726695949
 Si        11.5350990531        2.2382886753       12.1757889722
 Si        13.4842906300        1.1345013056       11.6651465918
 Si         9.4524166451        5.5964347214       12.2075160362
 Si        11.4120194842        4.4550045525       11.6511695536
 Si         7.6336890679        8.7488028934       12.2102392975
 Si         9.6498533398        7.8027869109       11.7090324553
 Si         5.7439997812       12.1914365430       12.1040274275
 Si         7.6258332993       10.9958503192       11.6218545793
 Si         3.5174488127       15.4036394430       11.9213181272
 Si         5.5870738973       14.4006089057       11.5977457583
 Si         1.8931220476       18.9602924192       11.9973399023
 Si         3.7180826089       17.6811888266       11.5757841477
 Si        -0.2025369351       22.1418890735       11.9746632611
 Si         1.8468849880       21.1932960358       11.5941673465