     132
 i =        1, E =      -531.0625171442
 Si         0.0594745382        2.2873613171       12.1751934572
 Si         2.0286519077        1.2649591308       11.6453535553
 Si        -1.7900714228        5.6367378487       12.1742365577
 Si         0.1717949678        4.5118656933       11.6618434268
 Si        -3.8398840448        8.9205787074       12.1925880620
 Si        -1.8596792190        7.8802522363       11.6862577988
 Si        -5.7602972636       12.2924786550       12.1977311161
 Si        -3.8568332106       11.1454977602       11.6726034084
 Si        -7.6522325499       15.5898214381       12.2189366214
 Si        -5.6778679870       14.5281275562       11.6904988539
 Si        -9.6115928154       18.9563400106       12.2130956620
 Si        -7.6895469158       17.8222853918       11.7140718389
 Si       -11.5465593263       22.3111124385       12.1450547068
 Si        -9.5876413605       21.1895015786       11.6974286760
 Si       -13.4496643472       25.7340127530       12.1148167612
 Si       -11.5499563635       24.5496021118       11.6355121249
 Si         3.9953324600        2.4021897574       12.1995853158
 Si         5.8044958751        1.1295601527       11.6963818383
 Si         2.1302908055        5.6383791248       12.2073078379
 Si         4.1855771450        4.6698557542       11.6983995915
 Si         0.0728152701        9.0414975654       12.1571485468
 Si         1.9464309383        7.8432680678       11.6413111429
 Si        -1.9113558910       12.2709169009       12.0890694362
 Si         0.0817075666       11.2822501444       11.6099018803
 Si        -3.7057898369       15.6513566661       12.1482442265
 Si        -1.7789464924       14.4884580285       11.6394767242
 Si        -5.7486831090       18.9448851984       12.1456280815
 Si        -3.7795492546       17.8893072958       11.6930991404
 Si        -7.6251803686       22.3018001001       12.1360289881
 Si        -5.6712247493       21.1784003908       11.6868841933
 Si        -9.6179846150       25.6409251521       12.1620654538
 Si        -7.6882368568       24.5344580716       11.6368858970
 Si         7.6508899905        2.3342655564       12.1991733128
 Si         9.6032028684        1.1828682014       11.6276198258
  N         5.8292643323        5.5843774684       11.8597919780
 Si         7.4337675313        4.6023478791       11.6893181662
 Si         3.8626605446        8.8892315349       12.1700380591
 Si         5.7515252137        7.4851074174       11.7405481920
 Si         1.9358817584       12.5940134571       11.9966049045
 Si         3.7921852482       11.1729398142       11.6280318272
 Si         0.3010754159       15.4364524803       11.9481913248
  C         1.9085276305       14.4678680897       11.8590855363
 Si        -1.8829718222       19.1256758242       11.9472666444
 Si        -0.0046895417       17.7533647400       11.7080328676
 Si        -3.6044600390       22.1432093169       11.9670045976
  B        -1.9017577326       21.1194712925       11.8291620438
 Si        -5.7699903477       25.6574264279       12.1201365448
 Si        -3.8383279448       24.4472566737       11.6804893951
 Si        11.5355567538        2.2375416560       12.1715470327
 Si        13.4845611153        1.1353408234       11.6653153910
 Si         9.4698331812        5.6020847112       12.2330679538
 Si        11.4177094618        4.4539034567       11.6511853450
 Si         7.6624542770        8.8215693669       12.3505934439
 Si         9.6494002203        7.8101226464       11.7101752656
 Si         5.7502142236       12.1924369646       12.1010640157
 Si         7.6408270898       11.0116507564       11.6251704391
 Si         3.5200987502       15.3935002879       11.9230355018
 Si         5.5911777616       14.3945367542       11.5941344655
 Si         1.8878163819       18.9380526794       12.0011954375
 Si         3.7159432902       17.6793460681       11.5809288945
 Si        -0.2237653090       22.1433246018       11.9526046876
 Si         1.8274344619       21.1852071311       11.6173110698
 Si        -1.9435930052       25.6364698727       12.1114961448
 Si        -0.0613593752       24.4284576566       11.6642335556
 Si        15.4253219294        2.2459267348       12.1656848506
 Si        17.3290819076        1.0808346363       11.6470588450
 Si        13.3874584772        5.5493712837       12.1568336647
 Si        15.3671789825        4.4848423009       11.6253226815
 Si        11.5909495775        8.9220881207       12.2199083458
 Si        13.5061601552        7.7755069523       11.6645055608
 Si         9.5621711363       12.1902476528       12.0783992588
 Si        11.5458680277       11.1257485999       11.6570933335
 Si         7.5559383045       15.5615665234       11.8920993352
 Si         9.5292104881       14.4070833174       11.4938483873
 Si         5.6965588986       18.8109024770       11.8780428889
 Si         7.5874644279       17.7342593659       11.2546307975
 Si         3.8112220433       22.2544910513       12.0163356437
 Si         5.7074817659       21.0986536416       11.4602364479
 Si         1.8788533835       25.5679942168       12.0995327221
 Si         3.8370923174       24.5077769902       11.5816096874
 Si        19.2504377295        2.2358278265       12.1509837528
 Si        21.2058356428        1.1502136164       11.6378487629
 Si        17.3222994623        5.6040661477       12.1656144755
 Si        19.2675679801        4.4790014857       11.6275964209
 Si        15.4720585690        8.8611113310       12.2001076984
  P        17.3629152106        7.7890779634       11.5752177660
 Si        13.4995948234       12.1926853225       12.2003604228
 Si        15.4488536230       11.0980431272       11.6680368109
 Si        11.5183841565       15.5302928987       11.9754678042
 Si        13.4975788902       14.4146486297       11.6502094951
 Al         9.6164760057       18.9172088131       11.6570611643
 Si        11.6561930017       17.7309292546       11.3877939117
 Si         7.6586566874       22.2724257921       11.9236815806
 Si         9.6257586487       21.2774919723       11.3600376535
 Si         5.7503555681       25.6548068589       12.1034666431
 Si         7.6774712858       24.5418863531       11.5853803207
 Si        23.1647858529        2.2336281355       12.1358444682
 Si        25.1149903807        1.1392044097       11.6340209679
 Si        21.2369751781        5.5593680584       12.1462129718
 Si        23.1974952533        4.4691071468       11.6606599048
 Si        19.2584804846        8.8768572304       12.2029276750
 Si        21.2159369863        7.7961075712       11.6506247404
 Si        17.3668870762       12.2505339005       12.1783082547
 Si        19.2889824672       11.1177502995       11.6671309137
 Si        15.4183512374       15.5880519559       12.1428937421
 Si        17.3827181450       14.4887825949       11.7016223113
 Si        13.5122953571       18.9227805322       11.9812430380
 Si        15.4828600265       17.8289112648       11.6562903578
 Si        11.5661326617       22.3216766230       11.9367272328
 Si        13.5234794585       21.1856850401       11.5044010053
 Si         9.6460788637       25.6370205717       12.0747292832
 Si        11.6172099130       24.5763750893       11.5858668791
 Si        27.0607836928        2.2705418825       12.1299556610
 Si        29.0096771116        1.1732919100       11.6380328540
 Si        25.1500836232        5.5807279888       12.1686786638
 Si        27.1294540641        4.5192249922       11.6628122126
 Si        23.1556550718        8.9224264298       12.2004181654
 Si        25.1027050252        7.8117591005       11.6863883189
 Si        21.2308694920       12.2266621693       12.2284513594
 Si        23.1841993127       11.1597916437       11.7083719925
 Si        19.3329396498       15.5982574355       12.2129700150
 Si        21.2755796529       14.4719463926       11.7446186203
 Si        17.4072147008       18.9573334073       12.1600436966
 Si        19.3471299588       17.8345750563       11.7124101480
 Si        15.4505790986       22.3179616341       12.0559123848
 Si        17.4075923392       21.1898136673       11.6277036647
 Si        13.5541304015       25.6844774612       12.1028824143
 Si        15.4997100830       24.5859459023       11.5968958736
  H         7.5212896180        7.6287976158       10.1621288145
  C         6.4529499293        7.4161443793       10.3630506390
  H         5.6783259112        8.1536038014       10.0481336366
  O         5.7819608204        6.2560198160       10.5145784682
     132
 i =        2, E =      -531.1392593982
 Si         0.0622183409        2.2865247388       12.1743268069
 Si         2.0328625689        1.2643194261       11.6490959418
 Si        -1.7905043190        5.6390078099       12.1734030294
 Si         0.1742706306        4.5149927134       11.6657959982
 Si        -3.8400921392        8.9216967415       12.1927529895
 Si        -1.8613474367        7.8819285731       11.6820965918
 Si        -5.7598797173       12.2920865244       12.1982822435
 Si        -3.8563079775       11.1454173756       11.6725183771
 Si        -7.6527653931       15.5898360335       12.2193919901
 Si        -5.6783008519       14.5277802523       11.6909009642
 Si        -9.6115526162       18.9569647835       12.2136005885
 Si        -7.6898894859       17.8220161147       11.7138317052
 Si       -11.5456053218       22.3105600736       12.1455249044
 Si        -9.5877984090       21.1894086933       11.6961150428
 Si       -13.4488618301       25.7342401248       12.1144571484
 Si       -11.5498918678       24.5482803558       11.6345320763
 Si         3.9965502404        2.3971363137       12.2052870623
 Si         5.8004833986        1.1233870297       11.6844886757
 Si         2.1366289338        5.6355183100       12.2160372862
 Si         4.1901714948        4.6487854444       11.7019344898
 Si         0.0678557515        9.0428623652       12.1579342611
 Si         1.9418173303        7.8411881286       11.6394642260
 Si        -1.9127478418       12.2717219454       12.0893424196
 Si         0.0799007598       11.2816642174       11.6123041218
 Si        -3.7055228154       15.6515193906       12.1486245520
 Si        -1.7790733165       14.4880091489       11.6395988292
 Si        -5.7484031162       18.9452602595       12.1450587387
 Si        -3.7801434892       17.8885676914       11.6914076637
 Si        -7.6259801732       22.3013589571       12.1366238589
 Si        -5.6716146074       21.1791658878       11.6873387121
 Si        -9.6190139070       25.6367551710       12.1667082228
 Si        -7.6895283064       24.5335621134       11.6363171642
 Si         7.6518285292        2.3124483333       12.2178736788
 Si         9.6086311838        1.1746734339       11.6273739526
  N         5.8637861342        5.5662934104       11.8540766912
 Si         7.4749847484        4.5876472986       11.6644101580
 Si         3.8449909988        8.8977066363       12.1779046943
 Si         5.7792471576        7.4958581153       11.8209677925
 Si         1.9313033088       12.5963408035       11.9949724746
 Si         3.7917334426       11.1775086008       11.6303716042
 Si         0.3001676783       15.4359988363       11.9500075537
  C         1.9092669443       14.4692607227       11.8602461066
 Si        -1.8834964001       19.1275628671       11.9462866589
 Si        -0.0045224676       17.7528323275       11.7063213019
 Si        -3.6034672786       22.1425252217       11.9654410232
  B        -1.9020932068       21.1195699086       11.8362463823
 Si        -5.7683386171       25.6518852459       12.1195666114
 Si        -3.8373613439       24.4468279610       11.6816670706
 Si        11.5380531541        2.2389713751       12.1712849364
 Si        13.4843850262        1.1344407402       11.6650269969
 Si         9.4831761952        5.6097362776       12.2452097774
 Si        11.4185309399        4.4582261221       11.6560961097
 Si         7.6914107292        8.8639757111       12.4469953189
 Si         9.6424025836        7.8255470305       11.7244897258
 Si         5.7549283198       12.1957352192       12.0987424576
 Si         7.6527531350       11.0140590463       11.6396095398
 Si         3.5201730812       15.3939514281       11.9220053625
 Si         5.5900226258       14.3931874131       11.5961274483
 Si         1.8875700748       18.9378126783       12.0017189944
 Si         3.7149949232       17.6786769259       11.5822443662
 Si        -0.2256990250       22.1426473258       11.9506225749
 Si         1.8274080493       21.1845327031       11.6165631075
 Si        -1.9446021395       25.6361162227       12.1107771860
 Si        -0.0620003543       24.4293509178       11.6642196536
 Si        15.4242595131        2.2457111070       12.1647182524
 Si        17.3287948634        1.0811149853       11.6477001078
 Si        13.3893486572        5.5506027099       12.1541511367
 Si        15.3675317422        4.4858952802       11.6273538238
 Si        11.5918640845        8.9208501734       12.2176541294
 Si        13.5060288651        7.7784132620       11.6635652751
 Si         9.5686486202       12.1987041613       12.0736520931
 Si        11.5485158807       11.1242076208       11.6558169600
 Si         7.5566056730       15.5602172994       11.8898204502
 Si         9.5323680913       14.4115985228       11.4952593917
 Si         5.6959124160       18.8098023811       11.8764184320
 Si         7.5886851319       17.7331699386       11.2557471036
 Si         3.8111940453       22.2540940792       12.0166813908
 Si         5.7078070520       21.0984830344       11.4604079895
 Si         1.8781784003       25.5679866926       12.0996828927
 Si         3.8367263462       24.5077992621       11.5818626055
 Si        19.2504640239        2.2361949607       12.1507597642
 Si        21.2057898936        1.1511572900       11.6389178251
 Si        17.3225665881        5.6044090007       12.1654093186
 Si        19.2675723458        4.4794359285       11.6275965939
 Si        15.4720079115        8.8613730724       12.1997963839
  P        17.3629202032        7.7895161224       11.5764867361
 Si        13.5007291424       12.1937645326       12.2021187612
 Si        15.4491758286       11.0979117995       11.6672912747
 Si        11.5200961416       15.5323152121       11.9752089494
 Si        13.4979495907       14.4151294193       11.6504198745
 Al         9.6174861325       18.9168989732       11.6574486137
 Si        11.6570263336       17.7313653409       11.3875421542
 Si         7.6591096658       22.2723312751       11.9235586482
 Si         9.6258771644       21.2769637165       11.3598151378
 Si         5.7504375369       25.6543690088       12.1016687079
 Si         7.6780046921       24.5417879805       11.5859060232
 Si        23.1647611621        2.2338896418       12.1356970861
 Si        25.1149382058        1.1393393645       11.6346276123
 Si        21.2371294088        5.5594279299       12.1458685879
 Si        23.1976108032        4.4693924424       11.6603278409
 Si        19.2587582153        8.8771693086       12.2027058828
 Si        21.2158805951        7.7963721963       11.6504798476
 Si        17.3671326714       12.2511593092       12.1790093903
 Si        19.2888808845       11.1182358320       11.6672434622
 Si        15.4185965684       15.5882882208       12.1427552144
 Si        17.3829864154       14.4889538085       11.7014978862
 Si        13.5127921093       18.9229197513       11.9810367651
 Si        15.4828260490       17.8284479123       11.6559957635
 Si        11.5663539321       22.3212757592       11.9365544558
 Si        13.5241382184       21.1854125374       11.5038731382
 Si         9.6462394587       25.6369385361       12.0746238025
 Si        11.6172649412       24.5765636721       11.5861841155
 Si        27.0610600257        2.2701730784       12.1297035038
 Si        29.0104470215        1.1733274441       11.6366833644
 Si        25.1497945004        5.5812008802       12.1687699389
 Si        27.1296749476        4.5200511325       11.6637627768
 Si        23.1555012405        8.9227345475       12.2000101350
 Si        25.1031924879        7.8123022779       11.6871438095
 Si        21.2308239550       12.2275327917       12.2291329597
 Si        23.1842233212       11.1603185757       11.7078858646
 Si        19.3332591388       15.5978616041       12.2132980766
 Si        21.2751950415       14.4715549406       11.7430481063
 Si        17.4071273484       18.9568564692       12.1598517979
 Si        19.3473109614       17.8343409978       11.7124145606
 Si        15.4506078012       22.3183978232       12.0556787692
 Si        17.4079205592       21.1898487615       11.6285518766
 Si        13.5549058084       25.6841745675       12.1034745899
 Si        15.5012190726       24.5863412334       11.5978631433
  H         7.5364487601        7.5687707057       10.0856566905
  C         6.4688154419        7.4252664316       10.3709175814
  H         5.7297809319        8.1570978795        9.9933271557
  O         5.5319608204        6.2868083715       10.4128377764
     132
 i =        3, E =      -531.2001370240
 Si         0.0650577419        2.2865385361       12.1697825491
 Si         2.0306482635        1.2568093404       11.6565055883
 Si        -1.7896230384        5.6420592976       12.1692869093
 Si         0.1795819600        4.5172886439       11.6781590310
 Si        -3.8409418544        8.9240608624       12.1933041420
 Si        -1.8664039480        7.8839020621       11.6738559465
 Si        -5.7594357990       12.2920963173       12.1993228538
 Si        -3.8570427669       11.1454358079       11.6718139802
 Si        -7.6529549649       15.5902342840       12.2202939528
 Si        -5.6787425552       14.5272856408       11.6917437164
 Si        -9.6110918475       18.9574143863       12.2143422432
 Si        -7.6899922706       17.8224359780       11.7143303744
 Si       -11.5450520973       22.3087538513       12.1457947324
 Si        -9.5884804468       21.1889069759       11.6934840895
 Si       -13.4485544285       25.7325539880       12.1114320237
 Si       -11.5516687002       24.5433099388       11.6334893251
 Si         3.9918361960        2.3594475891       12.2304437321
 Si         5.8088841887        1.1136265820       11.6629693741
 Si         2.1370704665        5.6309377373       12.2364342140
 Si         4.1779601257        4.5909983534       11.7139010950
 Si         0.0608283162        9.0424455390       12.1595173385
 Si         1.9396576211        7.8364705967       11.6402753143
 Si        -1.9166707589       12.2733172639       12.0918539019
 Si         0.0743362734       11.2807137656       11.6137214121
 Si        -3.7059175570       15.6527251146       12.1491311851
 Si        -1.7805841703       14.4881582628       11.6390966739
 Si        -5.7477401277       18.9452967890       12.1426562141
 Si        -3.7808584559       17.8883388426       11.6885512166
 Si        -7.6267614743       22.2977544542       12.1377716770
 Si        -5.6717789999       21.1790642591       11.6887212454
 Si        -9.6239625715       25.6294041900       12.1767694528
 Si        -7.6927133848       24.5300912452       11.6331863789
 Si         7.6527685510        2.3027149112       12.2255639426
 Si         9.6068229019        1.1634625303       11.6297392423
  N         5.8809934944        5.5229818077       11.8669969047
 Si         7.5110608261        4.5710932175       11.6431901837
 Si         3.8331926720        8.8998242644       12.1872011617
 Si         5.8703777083        7.5101769488       11.9329314053
 Si         1.9257228159       12.6006547700       11.9955985718
 Si         3.7921513847       11.1761333271       11.6445816199
 Si         0.2975474498       15.4380079229       11.9537109432
  C         1.9087351225       14.4724198580       11.8601554377
 Si        -1.8849630959       19.1292861990       11.9446716154
 Si        -0.0059758870       17.7534392228       11.7029638616
 Si        -3.6015710367       22.1377624687       11.9644432661
  B        -1.9019923612       21.1181054025       11.8495464767
 Si        -5.7637699016       25.6420026457       12.1199479162
 Si        -3.8335079019       24.4416939878       11.6818851931
 Si        11.5400814710        2.2372201126       12.1735002341
 Si        13.4858704424        1.1338181472       11.6623658507
 Si         9.4905267155        5.6244373392       12.2568155027
 Si        11.4189881609        4.4696865011       11.6658058940
 Si         7.7454700022        8.9174308170       12.6132654166
 Si         9.6270382867        7.8615462592       11.7656930741
 Si         5.7592845067       12.2046928904       12.1004807728
 Si         7.6747971407       11.0113164038       11.6775747770
 Si         3.5188670951       15.3955084943       11.9191932553
 Si         5.5896648203       14.3957739072       11.5984193301
 Si         1.8862945367       18.9371045903       12.0026535539
 Si         3.7140792268       17.6790154137       11.5855263216
 Si        -0.2287182840       22.1415282144       11.9474120613
 Si         1.8269772100       21.1834630433       11.6150325677
 Si        -1.9445863687       25.6353020776       12.1105327459
 Si        -0.0619991408       24.4299542755       11.6641018179
 Si        15.4254300957        2.2458800697       12.1615949029
 Si        17.3285132194        1.0817319038       11.6507596911
 Si        13.3985698031        5.5560777283       12.1525343312
 Si        15.3715347740        4.4870000678       11.6310998834
 Si        11.5991192010        8.9199276647       12.2141635182
 Si        13.5109870971        7.7844831830       11.6595714933
 Si         9.5889019959       12.2206506287       12.0688308892
 Si        11.5588576720       11.1237160479       11.6536729824
 Si         7.5581061729       15.5599320264       11.8841577047
 Si         9.5401197595       14.4263578672       11.4947449448
 Si         5.6954247079       18.8072966599       11.8714650403
 Si         7.5915227923       17.7313120369       11.2600871400
 Si         3.8108850646       22.2533225251       12.0174843984
 Si         5.7074294937       21.0970523184       11.4610680092
 Si         1.8766106776       25.5685994657       12.0990386654
 Si         3.8348832820       24.5072518926       11.5824838071
 Si        19.2494001240        2.2374940861       12.1499261930
 Si        21.2043143715        1.1531656342       11.6410883889
 Si        17.3244619136        5.6057249907       12.1642117850
 Si        19.2669502962        4.4797887831       11.6279924539
 Si        15.4741947029        8.8641145345       12.1972795295
  P        17.3630790911        7.7904257627       11.5804866383
 Si        13.5062452103       12.1968903617       12.2042330989
 Si        15.4503010351       11.0987700741       11.6674936487
 Si        11.5256781182       15.5370918282       11.9741601459
 Si        13.4992513070       14.4148388306       11.6519596174
 Al         9.6183538033       18.9153674013       11.6580731920
 Si        11.6580984455       17.7329898985       11.3866072354
 Si         7.6593711437       22.2713067351       11.9234743681
 Si         9.6265545416       21.2748338974       11.3589631653
 Si         5.7495736226       25.6537038097       12.0976145637
 Si         7.6789494477       24.5415771500       11.5864376232
 Si        23.1646762223        2.2341450646       12.1361905570
 Si        25.1165395511        1.1399730054       11.6353796486
 Si        21.2363328944        5.5599209372       12.1453432147
 Si        23.1977121931        4.4708440484       11.6587501304
 Si        19.2586084957        8.8782941771       12.2018268407
 Si        21.2154563940        7.7971059900       11.6499485532
 Si        17.3667501794       12.2512385019       12.1796154995
 Si        19.2880754470       11.1193437659       11.6679840562
 Si        15.4187727854       15.5878185809       12.1425693934
 Si        17.3831388756       14.4882566048       11.7013842718
 Si        13.5137322205       18.9235139769       11.9813375745
 Si        15.4839280618       17.8271422519       11.6547173836
 Si        11.5664754481       22.3210712006       11.9361283405
 Si        13.5266912962       21.1858709066       11.5023980664
 Si         9.6474127067       25.6367474160       12.0754646489
 Si        11.6193746896       24.5776832120       11.5872566000
 Si        27.0647286298        2.2692781688       12.1281449278
 Si        29.0146222792        1.1735869769       11.6365362490
 Si        25.1505991132        5.5824725362       12.1692821924
 Si        27.1316239991        4.5212341993       11.6668953218
 Si        23.1549971497        8.9237082874       12.1992896528
 Si        25.1036615310        7.8140037543       11.6883739919
 Si        21.2305505951       12.2281429731       12.2306981501
 Si        23.1845996603       11.1617216274       11.7072357144
 Si        19.3333242270       15.5975642692       12.2144254244
 Si        21.2750233933       14.4710442675       11.7390491654
 Si        17.4073704252       18.9567428515       12.1593814811
 Si        19.3481697272       17.8343190917       11.7122458840
 Si        15.4520817384       22.3202024715       12.0546067881
 Si        17.4084358673       21.1899610837       11.6310710296
 Si        13.5570780137       25.6857008124       12.1026629158
 Si        15.5035908134       24.5870876910       11.6016674523
  H         7.4694363712        7.3969440616        9.9153858681
  C         6.3891180545        7.4554885696       10.2807295276
  H         5.8106259488        8.2818788717        9.9000510173
  O         5.3289455935        6.3213234499       10.3185579956
     132
 i =        4, E =      -531.2310174266
 Si         0.0630190083        2.2870225254       12.1696841958
 Si         2.0253397902        1.2439601260       11.6589506215
 Si        -1.7920442800        5.6436536744       12.1643659629
 Si         0.1861143748        4.5213042180       11.6931082616
 Si        -3.8430043101        8.9263919081       12.1948425737
 Si        -1.8707706385        7.8848456751       11.6653848395
 Si        -5.7600298644       12.2928606570       12.2005500439
 Si        -3.8593175397       11.1467184062       11.6700076194
 Si        -7.6534136005       15.5897574386       12.2210184748
 Si        -5.6793004950       14.5279142332       11.6924810890
 Si        -9.6111619253       18.9569022646       12.2149794205
 Si        -7.6901256086       17.8221124963       11.7151764895
 Si       -11.5453205122       22.3055113668       12.1466080490
 Si        -9.5875775706       21.1876517267       11.6910632588
 Si       -13.4513990461       25.7238382480       12.1094202497
 Si       -11.5506061541       24.5376645554       11.6320188085
 Si         3.9920665440        2.3340841007       12.2596634573
 Si         5.8223076076        1.1019410408       11.6452688368
 Si         2.1474924537        5.6197208514       12.2519325491
 Si         4.2067092105        4.5871838744       11.7245440767
 Si         0.0625064338        9.0403790962       12.1599257540
 Si         1.9505598524        7.8317290039       11.6443937580
 Si        -1.9202477495       12.2747962063       12.0954659855
 Si         0.0698251266       11.2815856875       11.6135531293
 Si        -3.7067248479       15.6534518510       12.1496195396
 Si        -1.7834622294       14.4891002057       11.6385004444
 Si        -5.7471206310       18.9440937431       12.1393292198
 Si        -3.7816050350       17.8878339621       11.6854381663
 Si        -7.6270808317       22.2952078686       12.1374373272
 Si        -5.6720982329       21.1781550549       11.6907135171
 Si        -9.6231841135       25.6217775740       12.1848860198
 Si        -7.6940043298       24.5232945235       11.6318810757
 Si         7.6625479799        2.3022311162       12.2159718542
 Si         9.6073038243        1.1534129095       11.6384060861
  N         5.9231931716        5.5075185708       11.9247788754
 Si         7.5219162071        4.5563832599       11.6663483949
 Si         3.8527138240        8.8943589024       12.1959731852
 Si         5.9354616116        7.5222776134       11.9819510978
 Si         1.9249082045       12.6034427949       11.9970252863
 Si         3.7886334177       11.1664430801       11.6744499951
 Si         0.2942684639       15.4415171707       11.9557323623
  C         1.9059115414       14.4749010520       11.8602074121
 Si        -1.8855305326       19.1285492467       11.9448110231
 Si        -0.0074892835       17.7548191742       11.7001092686
 Si        -3.6005425820       22.1317235786       11.9662741435
  B        -1.9012671888       21.1155284779       11.8600796995
 Si        -5.7628597009       25.6322444246       12.1176407642
 Si        -3.8298339033       24.4355841194       11.6807872406
 Si        11.5377432956        2.2387702754       12.1717491166
 Si        13.4842840241        1.1359456414       11.6594144761
 Si         9.4898966373        5.6296933300       12.2586839581
 Si        11.4158797970        4.4814501452       11.6795603602
 Si         7.7898730961        8.9236459453       12.7507102601
 Si         9.6129874790        7.8852847931       11.8190451251
 Si         5.7583065994       12.2102914855       12.1081166957
 Si         7.6859913938       10.9991978839       11.7246125273
 Si         3.5156173170       15.3967262607       11.9145776695
 Si         5.5907812938       14.3992906772       11.5981921293
 Si         1.8839278384       18.9373478174       12.0034646200
 Si         3.7120631891       17.6808062697       11.5895801143
 Si        -0.2290055402       22.1387253885       11.9453472165
 Si         1.8266123550       21.1819163833       11.6139579852